
     Program PWSCF v.6.7MaX starts on 19Nov2021 at 12: 8:28 

     This program is part of the open-source Quantum ESPRESSO suite
     for quantum simulation of materials; please cite
         "P. Giannozzi et al., J. Phys.:Condens. Matter 21 395502 (2009);
         "P. Giannozzi et al., J. Phys.:Condens. Matter 29 465901 (2017);
          URL http://www.quantum-espresso.org", 
     in publications or presentations arising from this work. More details at
     http://www.quantum-espresso.org/quote

     Parallel version (MPI), running on    48 processors

     MPI processes distributed on     1 nodes
     R & G space division:  proc/nbgrp/npool/nimage =      48
     Reading input from scf.in

     Current dimensions of program PWSCF are:
     Max number of different atomic species (ntypx) = 10
     Max number of k-points (npk) =  40000
     Max angular momentum in pseudopotentials (lmaxx) =  3
     Message from routine scan_end:
     No INFO block end statement, possibly corrupted file
     Message from routine scan_end:
     No INFO block end statement, possibly corrupted file
     Message from routine scan_end:
     No INFO block end statement, possibly corrupted file

     WARNING: one or more of the chosen libxc functionals depend
      on external parameters: their correct operation is not guaranteed.

     IMPORTANT: XC functional enforced from input :
     Exchange-correlation= SCAN
                           (   0   0   0   0   0 263 267)
     Any further DFT definition will be discarded
     Please, verify this is what you really want


     Subspace diagonalization in iterative solution of the eigenvalue problem:
     one sub-group per band group will be used
     scalapack distributed-memory algorithm (size of sub-group:  6*  6 procs)

 
     Parallelization info
     --------------------
     sticks:   dense  smooth     PW     G-vecs:    dense   smooth      PW
     Min         336     336     87                32092    32092    4297
     Max         337     337     88                32097    32097    4304
     Sum       16141   16141   4221              1540499  1540499  206437
 


     bravais-lattice index     =            1
     lattice parameter (alat)  =       7.9576  a.u.
     unit-cell volume          =     503.9013 (a.u.)^3
     number of atoms/cell      =            8
     number of atomic types    =            3
     number of electrons       =        46.00 (up:  23.00, down:  23.00)
     number of Kohn-Sham states=           32
     kinetic-energy cutoff     =     800.0000  Ry
     charge density cutoff     =    3200.0000  Ry
     scf convergence threshold =      1.0E-10
     mixing beta               =       0.1000
     number of iterations used =            8  plain     mixing
     Exchange-correlation= SCAN
                           (   0   0   0   0   0 263 267)

     celldm(1)=   7.957595  celldm(2)=   0.000000  celldm(3)=   0.000000
     celldm(4)=   0.000000  celldm(5)=   0.000000  celldm(6)=   0.000000

     crystal axes: (cart. coord. in units of alat)
               a(1) = (   1.000000   0.000000   0.000000 )  
               a(2) = (   0.000000   1.000000   0.000000 )  
               a(3) = (   0.000000   0.000000   1.000000 )  

     reciprocal axes: (cart. coord. in units 2 pi/alat)
               b(1) = (  1.000000  0.000000  0.000000 )  
               b(2) = (  0.000000  1.000000  0.000000 )  
               b(3) = (  0.000000  0.000000  1.000000 )  


     PseudoPot. # 1 for Fe read from file:
     /ascldap/users/jptowns/ferropericlase_spintransition/pseudos/Fe.ccECP.upf
     MD5 check sum: 375ee7e2ce333dc2f1485c86089d969e
     Pseudo is Norm-conserving, Zval = 16.0
     Generated by new atomic code, or converted to UPF format
     Using radial grid of 1160 points,  2 beta functions with: 
                l(1) =   1
                l(2) =   2

     PseudoPot. # 2 for Mg read from file:
     /ascldap/users/jptowns/ferropericlase_spintransition/pseudos/Mg.ccECP.upf
     MD5 check sum: 94218cb30fa6b3f6810c07405bb1118c
     Pseudo is Norm-conserving, Zval =  2.0
     Generated by new atomic code, or converted to UPF format
     Using radial grid of 1140 points,  2 beta functions with: 
                l(1) =   0
                l(2) =   2

     PseudoPot. # 3 for O  read from file:
     /ascldap/users/jptowns/ferropericlase_spintransition/pseudos/O.ccECP.upf
     MD5 check sum: f8511452b848d8673c004e477b4fc277
     Pseudo is Norm-conserving, Zval =  6.0
     Generated by new atomic code, or converted to UPF format
     Using radial grid of 1130 points,  1 beta functions with: 
                l(1) =   0

     atomic species   valence    mass     pseudopotential
        Fe            16.00    55.84500     Fe( 1.00)
        Mg             2.00    24.30500     Mg( 1.00)
        O              6.00    15.99900     O ( 1.00)

     Starting magnetic structure 
     atomic species   magnetization
        Fe           0.000
        Mg           0.000
        O            0.000

     48 Sym. Ops., with inversion, found


                                    s                        frac. trans.

      isym =  1     identity                                     

 cryst.   s( 1) = (     1          0          0      )
                  (     0          1          0      )
                  (     0          0          1      )

 cart.    s( 1) = (  1.0000000  0.0000000  0.0000000 )
                  (  0.0000000  1.0000000  0.0000000 )
                  (  0.0000000  0.0000000  1.0000000 )


      isym =  2     180 deg rotation - cart. axis [0,0,1]        

 cryst.   s( 2) = (    -1          0          0      )
                  (     0         -1          0      )
                  (     0          0          1      )

 cart.    s( 2) = ( -1.0000000  0.0000000  0.0000000 )
                  (  0.0000000 -1.0000000  0.0000000 )
                  (  0.0000000  0.0000000  1.0000000 )


      isym =  3     180 deg rotation - cart. axis [0,1,0]        

 cryst.   s( 3) = (    -1          0          0      )
                  (     0          1          0      )
                  (     0          0         -1      )

 cart.    s( 3) = ( -1.0000000  0.0000000  0.0000000 )
                  (  0.0000000  1.0000000  0.0000000 )
                  (  0.0000000  0.0000000 -1.0000000 )


      isym =  4     180 deg rotation - cart. axis [1,0,0]        

 cryst.   s( 4) = (     1          0          0      )
                  (     0         -1          0      )
                  (     0          0         -1      )

 cart.    s( 4) = (  1.0000000  0.0000000  0.0000000 )
                  (  0.0000000 -1.0000000  0.0000000 )
                  (  0.0000000  0.0000000 -1.0000000 )


      isym =  5     180 deg rotation - cart. axis [1,1,0]        

 cryst.   s( 5) = (     0          1          0      )
                  (     1          0          0      )
                  (     0          0         -1      )

 cart.    s( 5) = (  0.0000000  1.0000000  0.0000000 )
                  (  1.0000000  0.0000000  0.0000000 )
                  (  0.0000000  0.0000000 -1.0000000 )


      isym =  6     180 deg rotation - cart. axis [1,-1,0]       

 cryst.   s( 6) = (     0         -1          0      )
                  (    -1          0          0      )
                  (     0          0         -1      )

 cart.    s( 6) = (  0.0000000 -1.0000000  0.0000000 )
                  ( -1.0000000  0.0000000  0.0000000 )
                  (  0.0000000  0.0000000 -1.0000000 )


      isym =  7      90 deg rotation - cart. axis [0,0,-1]       

 cryst.   s( 7) = (     0         -1          0      )
                  (     1          0          0      )
                  (     0          0          1      )

 cart.    s( 7) = (  0.0000000  1.0000000  0.0000000 )
                  ( -1.0000000  0.0000000  0.0000000 )
                  (  0.0000000  0.0000000  1.0000000 )


      isym =  8      90 deg rotation - cart. axis [0,0,1]        

 cryst.   s( 8) = (     0          1          0      )
                  (    -1          0          0      )
                  (     0          0          1      )

 cart.    s( 8) = (  0.0000000 -1.0000000  0.0000000 )
                  (  1.0000000  0.0000000  0.0000000 )
                  (  0.0000000  0.0000000  1.0000000 )


      isym =  9     180 deg rotation - cart. axis [1,0,1]        

 cryst.   s( 9) = (     0          0          1      )
                  (     0         -1          0      )
                  (     1          0          0      )

 cart.    s( 9) = (  0.0000000  0.0000000  1.0000000 )
                  (  0.0000000 -1.0000000  0.0000000 )
                  (  1.0000000  0.0000000  0.0000000 )


      isym = 10     180 deg rotation - cart. axis [-1,0,1]       

 cryst.   s(10) = (     0          0         -1      )
                  (     0         -1          0      )
                  (    -1          0          0      )

 cart.    s(10) = (  0.0000000  0.0000000 -1.0000000 )
                  (  0.0000000 -1.0000000  0.0000000 )
                  ( -1.0000000  0.0000000  0.0000000 )


      isym = 11      90 deg rotation - cart. axis [0,1,0]        

 cryst.   s(11) = (     0          0         -1      )
                  (     0          1          0      )
                  (     1          0          0      )

 cart.    s(11) = (  0.0000000  0.0000000  1.0000000 )
                  (  0.0000000  1.0000000  0.0000000 )
                  ( -1.0000000  0.0000000  0.0000000 )


      isym = 12      90 deg rotation - cart. axis [0,-1,0]       

 cryst.   s(12) = (     0          0          1      )
                  (     0          1          0      )
                  (    -1          0          0      )

 cart.    s(12) = (  0.0000000  0.0000000 -1.0000000 )
                  (  0.0000000  1.0000000  0.0000000 )
                  (  1.0000000  0.0000000  0.0000000 )


      isym = 13     180 deg rotation - cart. axis [0,1,1]        

 cryst.   s(13) = (    -1          0          0      )
                  (     0          0          1      )
                  (     0          1          0      )

 cart.    s(13) = ( -1.0000000  0.0000000  0.0000000 )
                  (  0.0000000  0.0000000  1.0000000 )
                  (  0.0000000  1.0000000  0.0000000 )


      isym = 14     180 deg rotation - cart. axis [0,1,-1]       

 cryst.   s(14) = (    -1          0          0      )
                  (     0          0         -1      )
                  (     0         -1          0      )

 cart.    s(14) = ( -1.0000000  0.0000000  0.0000000 )
                  (  0.0000000  0.0000000 -1.0000000 )
                  (  0.0000000 -1.0000000  0.0000000 )


      isym = 15      90 deg rotation - cart. axis [-1,0,0]       

 cryst.   s(15) = (     1          0          0      )
                  (     0          0         -1      )
                  (     0          1          0      )

 cart.    s(15) = (  1.0000000  0.0000000  0.0000000 )
                  (  0.0000000  0.0000000  1.0000000 )
                  (  0.0000000 -1.0000000  0.0000000 )


      isym = 16      90 deg rotation - cart. axis [1,0,0]        

 cryst.   s(16) = (     1          0          0      )
                  (     0          0          1      )
                  (     0         -1          0      )

 cart.    s(16) = (  1.0000000  0.0000000  0.0000000 )
                  (  0.0000000  0.0000000 -1.0000000 )
                  (  0.0000000  1.0000000  0.0000000 )


      isym = 17     120 deg rotation - cart. axis [-1,-1,-1]     

 cryst.   s(17) = (     0          0          1      )
                  (     1          0          0      )
                  (     0          1          0      )

 cart.    s(17) = (  0.0000000  1.0000000  0.0000000 )
                  (  0.0000000  0.0000000  1.0000000 )
                  (  1.0000000  0.0000000  0.0000000 )


      isym = 18     120 deg rotation - cart. axis [-1,1,1]       

 cryst.   s(18) = (     0          0         -1      )
                  (    -1          0          0      )
                  (     0          1          0      )

 cart.    s(18) = (  0.0000000 -1.0000000  0.0000000 )
                  (  0.0000000  0.0000000  1.0000000 )
                  ( -1.0000000  0.0000000  0.0000000 )


      isym = 19     120 deg rotation - cart. axis [1,1,-1]       

 cryst.   s(19) = (     0          0         -1      )
                  (     1          0          0      )
                  (     0         -1          0      )

 cart.    s(19) = (  0.0000000  1.0000000  0.0000000 )
                  (  0.0000000  0.0000000 -1.0000000 )
                  ( -1.0000000  0.0000000  0.0000000 )


      isym = 20     120 deg rotation - cart. axis [1,-1,1]       

 cryst.   s(20) = (     0          0          1      )
                  (    -1          0          0      )
                  (     0         -1          0      )

 cart.    s(20) = (  0.0000000 -1.0000000  0.0000000 )
                  (  0.0000000  0.0000000 -1.0000000 )
                  (  1.0000000  0.0000000  0.0000000 )


      isym = 21     120 deg rotation - cart. axis [1,1,1]        

 cryst.   s(21) = (     0          1          0      )
                  (     0          0          1      )
                  (     1          0          0      )

 cart.    s(21) = (  0.0000000  0.0000000  1.0000000 )
                  (  1.0000000  0.0000000  0.0000000 )
                  (  0.0000000  1.0000000  0.0000000 )


      isym = 22     120 deg rotation - cart. axis [-1,1,-1]      

 cryst.   s(22) = (     0         -1          0      )
                  (     0          0         -1      )
                  (     1          0          0      )

 cart.    s(22) = (  0.0000000  0.0000000  1.0000000 )
                  ( -1.0000000  0.0000000  0.0000000 )
                  (  0.0000000 -1.0000000  0.0000000 )


      isym = 23     120 deg rotation - cart. axis [1,-1,-1]      

 cryst.   s(23) = (     0         -1          0      )
                  (     0          0          1      )
                  (    -1          0          0      )

 cart.    s(23) = (  0.0000000  0.0000000 -1.0000000 )
                  ( -1.0000000  0.0000000  0.0000000 )
                  (  0.0000000  1.0000000  0.0000000 )


      isym = 24     120 deg rotation - cart. axis [-1,-1,1]      

 cryst.   s(24) = (     0          1          0      )
                  (     0          0         -1      )
                  (    -1          0          0      )

 cart.    s(24) = (  0.0000000  0.0000000 -1.0000000 )
                  (  1.0000000  0.0000000  0.0000000 )
                  (  0.0000000 -1.0000000  0.0000000 )


      isym = 25     inversion                                    

 cryst.   s(25) = (    -1          0          0      )
                  (     0         -1          0      )
                  (     0          0         -1      )

 cart.    s(25) = ( -1.0000000  0.0000000  0.0000000 )
                  (  0.0000000 -1.0000000  0.0000000 )
                  (  0.0000000  0.0000000 -1.0000000 )


      isym = 26     inv. 180 deg rotation - cart. axis [0,0,1]   

 cryst.   s(26) = (     1          0          0      )
                  (     0          1          0      )
                  (     0          0         -1      )

 cart.    s(26) = (  1.0000000  0.0000000  0.0000000 )
                  (  0.0000000  1.0000000  0.0000000 )
                  (  0.0000000  0.0000000 -1.0000000 )


      isym = 27     inv. 180 deg rotation - cart. axis [0,1,0]   

 cryst.   s(27) = (     1          0          0      )
                  (     0         -1          0      )
                  (     0          0          1      )

 cart.    s(27) = (  1.0000000  0.0000000  0.0000000 )
                  (  0.0000000 -1.0000000  0.0000000 )
                  (  0.0000000  0.0000000  1.0000000 )


      isym = 28     inv. 180 deg rotation - cart. axis [1,0,0]   

 cryst.   s(28) = (    -1          0          0      )
                  (     0          1          0      )
                  (     0          0          1      )

 cart.    s(28) = ( -1.0000000  0.0000000  0.0000000 )
                  (  0.0000000  1.0000000  0.0000000 )
                  (  0.0000000  0.0000000  1.0000000 )


      isym = 29     inv. 180 deg rotation - cart. axis [1,1,0]   

 cryst.   s(29) = (     0         -1          0      )
                  (    -1          0          0      )
                  (     0          0          1      )

 cart.    s(29) = (  0.0000000 -1.0000000  0.0000000 )
                  ( -1.0000000  0.0000000  0.0000000 )
                  (  0.0000000  0.0000000  1.0000000 )


      isym = 30     inv. 180 deg rotation - cart. axis [1,-1,0]  

 cryst.   s(30) = (     0          1          0      )
                  (     1          0          0      )
                  (     0          0          1      )

 cart.    s(30) = (  0.0000000  1.0000000  0.0000000 )
                  (  1.0000000  0.0000000  0.0000000 )
                  (  0.0000000  0.0000000  1.0000000 )


      isym = 31     inv.  90 deg rotation - cart. axis [0,0,-1]  

 cryst.   s(31) = (     0          1          0      )
                  (    -1          0          0      )
                  (     0          0         -1      )

 cart.    s(31) = (  0.0000000 -1.0000000  0.0000000 )
                  (  1.0000000  0.0000000  0.0000000 )
                  (  0.0000000  0.0000000 -1.0000000 )


      isym = 32     inv.  90 deg rotation - cart. axis [0,0,1]   

 cryst.   s(32) = (     0         -1          0      )
                  (     1          0          0      )
                  (     0          0         -1      )

 cart.    s(32) = (  0.0000000  1.0000000  0.0000000 )
                  ( -1.0000000  0.0000000  0.0000000 )
                  (  0.0000000  0.0000000 -1.0000000 )


      isym = 33     inv. 180 deg rotation - cart. axis [1,0,1]   

 cryst.   s(33) = (     0          0         -1      )
                  (     0          1          0      )
                  (    -1          0          0      )

 cart.    s(33) = (  0.0000000  0.0000000 -1.0000000 )
                  (  0.0000000  1.0000000  0.0000000 )
                  ( -1.0000000  0.0000000  0.0000000 )


      isym = 34     inv. 180 deg rotation - cart. axis [-1,0,1]  

 cryst.   s(34) = (     0          0          1      )
                  (     0          1          0      )
                  (     1          0          0      )

 cart.    s(34) = (  0.0000000  0.0000000  1.0000000 )
                  (  0.0000000  1.0000000  0.0000000 )
                  (  1.0000000  0.0000000  0.0000000 )


      isym = 35     inv.  90 deg rotation - cart. axis [0,1,0]   

 cryst.   s(35) = (     0          0          1      )
                  (     0         -1          0      )
                  (    -1          0          0      )

 cart.    s(35) = (  0.0000000  0.0000000 -1.0000000 )
                  (  0.0000000 -1.0000000  0.0000000 )
                  (  1.0000000  0.0000000  0.0000000 )


      isym = 36     inv.  90 deg rotation - cart. axis [0,-1,0]  

 cryst.   s(36) = (     0          0         -1      )
                  (     0         -1          0      )
                  (     1          0          0      )

 cart.    s(36) = (  0.0000000  0.0000000  1.0000000 )
                  (  0.0000000 -1.0000000  0.0000000 )
                  ( -1.0000000  0.0000000  0.0000000 )


      isym = 37     inv. 180 deg rotation - cart. axis [0,1,1]   

 cryst.   s(37) = (     1          0          0      )
                  (     0          0         -1      )
                  (     0         -1          0      )

 cart.    s(37) = (  1.0000000  0.0000000  0.0000000 )
                  (  0.0000000  0.0000000 -1.0000000 )
                  (  0.0000000 -1.0000000  0.0000000 )


      isym = 38     inv. 180 deg rotation - cart. axis [0,1,-1]  

 cryst.   s(38) = (     1          0          0      )
                  (     0          0          1      )
                  (     0          1          0      )

 cart.    s(38) = (  1.0000000  0.0000000  0.0000000 )
                  (  0.0000000  0.0000000  1.0000000 )
                  (  0.0000000  1.0000000  0.0000000 )


      isym = 39     inv.  90 deg rotation - cart. axis [-1,0,0]  

 cryst.   s(39) = (    -1          0          0      )
                  (     0          0          1      )
                  (     0         -1          0      )

 cart.    s(39) = ( -1.0000000  0.0000000  0.0000000 )
                  (  0.0000000  0.0000000 -1.0000000 )
                  (  0.0000000  1.0000000  0.0000000 )


      isym = 40     inv.  90 deg rotation - cart. axis [1,0,0]   

 cryst.   s(40) = (    -1          0          0      )
                  (     0          0         -1      )
                  (     0          1          0      )

 cart.    s(40) = ( -1.0000000  0.0000000  0.0000000 )
                  (  0.0000000  0.0000000  1.0000000 )
                  (  0.0000000 -1.0000000  0.0000000 )


      isym = 41     inv. 120 deg rotation - cart. axis [-1,-1,-1]

 cryst.   s(41) = (     0          0         -1      )
                  (    -1          0          0      )
                  (     0         -1          0      )

 cart.    s(41) = (  0.0000000 -1.0000000  0.0000000 )
                  (  0.0000000  0.0000000 -1.0000000 )
                  ( -1.0000000  0.0000000  0.0000000 )


      isym = 42     inv. 120 deg rotation - cart. axis [-1,1,1]  

 cryst.   s(42) = (     0          0          1      )
                  (     1          0          0      )
                  (     0         -1          0      )

 cart.    s(42) = (  0.0000000  1.0000000  0.0000000 )
                  (  0.0000000  0.0000000 -1.0000000 )
                  (  1.0000000  0.0000000  0.0000000 )


      isym = 43     inv. 120 deg rotation - cart. axis [1,1,-1]  

 cryst.   s(43) = (     0          0          1      )
                  (    -1          0          0      )
                  (     0          1          0      )

 cart.    s(43) = (  0.0000000 -1.0000000  0.0000000 )
                  (  0.0000000  0.0000000  1.0000000 )
                  (  1.0000000  0.0000000  0.0000000 )


      isym = 44     inv. 120 deg rotation - cart. axis [1,-1,1]  

 cryst.   s(44) = (     0          0         -1      )
                  (     1          0          0      )
                  (     0          1          0      )

 cart.    s(44) = (  0.0000000  1.0000000  0.0000000 )
                  (  0.0000000  0.0000000  1.0000000 )
                  ( -1.0000000  0.0000000  0.0000000 )


      isym = 45     inv. 120 deg rotation - cart. axis [1,1,1]   

 cryst.   s(45) = (     0         -1          0      )
                  (     0          0         -1      )
                  (    -1          0          0      )

 cart.    s(45) = (  0.0000000  0.0000000 -1.0000000 )
                  ( -1.0000000  0.0000000  0.0000000 )
                  (  0.0000000 -1.0000000  0.0000000 )


      isym = 46     inv. 120 deg rotation - cart. axis [-1,1,-1] 

 cryst.   s(46) = (     0          1          0      )
                  (     0          0          1      )
                  (    -1          0          0      )

 cart.    s(46) = (  0.0000000  0.0000000 -1.0000000 )
                  (  1.0000000  0.0000000  0.0000000 )
                  (  0.0000000  1.0000000  0.0000000 )


      isym = 47     inv. 120 deg rotation - cart. axis [1,-1,-1] 

 cryst.   s(47) = (     0          1          0      )
                  (     0          0         -1      )
                  (     1          0          0      )

 cart.    s(47) = (  0.0000000  0.0000000  1.0000000 )
                  (  1.0000000  0.0000000  0.0000000 )
                  (  0.0000000 -1.0000000  0.0000000 )


      isym = 48     inv. 120 deg rotation - cart. axis [-1,-1,1] 

 cryst.   s(48) = (     0         -1          0      )
                  (     0          0          1      )
                  (     1          0          0      )

 cart.    s(48) = (  0.0000000  0.0000000  1.0000000 )
                  ( -1.0000000  0.0000000  0.0000000 )
                  (  0.0000000  1.0000000  0.0000000 )


     point group O_h (m-3m) 
     there are 10 classes
     the character table:

       E     8C3   3C2   6C4   6C2'  i     8S6   3s_h  6S4   6s_d 
A_1g   1.00  1.00  1.00  1.00  1.00  1.00  1.00  1.00  1.00  1.00
A_2g   1.00  1.00  1.00 -1.00 -1.00  1.00  1.00  1.00 -1.00 -1.00
E_g    2.00 -1.00  2.00  0.00  0.00  2.00 -1.00  2.00  0.00  0.00
T_1g   3.00  0.00 -1.00  1.00 -1.00  3.00  0.00 -1.00  1.00 -1.00
T_2g   3.00  0.00 -1.00 -1.00  1.00  3.00  0.00 -1.00 -1.00  1.00
A_1u   1.00  1.00  1.00  1.00  1.00 -1.00 -1.00 -1.00 -1.00 -1.00
A_2u   1.00  1.00  1.00 -1.00 -1.00 -1.00 -1.00 -1.00  1.00  1.00
E_u    2.00 -1.00  2.00  0.00  0.00 -2.00  1.00 -2.00  0.00  0.00
T_1u   3.00  0.00 -1.00  1.00 -1.00 -3.00  0.00  1.00 -1.00  1.00
T_2u   3.00  0.00 -1.00 -1.00  1.00 -3.00  0.00  1.00  1.00 -1.00

     the symmetry operations in each class and the name of the first element:

     E        1
          identity                                               
     8C3     17   19   20   18   24   21   22   23
          120 deg rotation - cart. axis [-1,-1,-1]               
     3C2      2    4    3
          180 deg rotation - cart. axis [0,0,1]                  
     6C4      7    8   15   16   12   11
           90 deg rotation - cart. axis [0,0,-1]                 
     6C2'     5    6   14   13   10    9
          180 deg rotation - cart. axis [1,1,0]                  
     i       25
          inversion                                              
     8S6     41   43   44   42   48   45   46   47
          inv. 120 deg rotation - cart. axis [-1,-1,-1]          
     3s_h    26   28   27
          inv. 180 deg rotation - cart. axis [0,0,1]             
     6S4     31   32   39   40   36   35
          inv.  90 deg rotation - cart. axis [0,0,-1]            
     6s_d    29   30   38   37   34   33
          inv. 180 deg rotation - cart. axis [1,1,0]             

   Cartesian axes

     site n.     atom                  positions (alat units)
         1           Fe  tau(   1) = (   0.0000000   0.0000000   0.0000000  )
         2           Mg  tau(   2) = (   0.0000000   0.5000000   0.5000000  )
         3           Mg  tau(   3) = (   0.5000000   0.0000000   0.5000000  )
         4           Mg  tau(   4) = (   0.5000000   0.5000000   0.0000000  )
         5           O   tau(   5) = (   0.5000000   0.5000000   0.5000000  )
         6           O   tau(   6) = (   0.5000000   0.0000000   0.0000000  )
         7           O   tau(   7) = (   0.0000000   0.5000000   0.0000000  )
         8           O   tau(   8) = (   0.0000000   0.0000000   0.5000000  )

   Crystallographic axes

     site n.     atom                  positions (cryst. coord.)
         1           Fe  tau(   1) = (  0.0000000  0.0000000  0.0000000  )
         2           Mg  tau(   2) = (  0.0000000  0.5000000  0.5000000  )
         3           Mg  tau(   3) = (  0.5000000  0.0000000  0.5000000  )
         4           Mg  tau(   4) = (  0.5000000  0.5000000  0.0000000  )
         5           O   tau(   5) = (  0.5000000  0.5000000  0.5000000  )
         6           O   tau(   6) = (  0.5000000  0.0000000  0.0000000  )
         7           O   tau(   7) = (  0.0000000  0.5000000  0.0000000  )
         8           O   tau(   8) = (  0.0000000  0.0000000  0.5000000  )

     number of k points=     4  Fermi-Dirac smearing, width (Ry)=  0.0019
                       cart. coord. in units 2pi/alat
        k(    1) = (   0.0000000   0.0000000   0.0000000), wk =   0.1250000
        k(    2) = (   0.0000000   0.0000000  -0.5000000), wk =   0.3750000
        k(    3) = (   0.0000000  -0.5000000  -0.5000000), wk =   0.3750000
        k(    4) = (  -0.5000000  -0.5000000  -0.5000000), wk =   0.1250000

                       cryst. coord.
        k(    1) = (   0.0000000   0.0000000   0.0000000), wk =   0.1250000
        k(    2) = (   0.0000000   0.0000000  -0.5000000), wk =   0.3750000
        k(    3) = (   0.0000000  -0.5000000  -0.5000000), wk =   0.3750000
        k(    4) = (  -0.5000000  -0.5000000  -0.5000000), wk =   0.1250000

     Dense  grid:  1540499 G-vectors     FFT dimensions: ( 144, 144, 144)

     Dynamical RAM for                 wfc:       1.96 MB

     Dynamical RAM for     wfc (w. buffer):      17.63 MB

     Dynamical RAM for           str. fact:       1.47 MB

     Dynamical RAM for           local pot:       0.00 MB

     Dynamical RAM for          nlocal pot:       1.84 MB

     Dynamical RAM for                qrad:       1.94 MB

     Dynamical RAM for          rho,v,vnew:      11.57 MB

     Dynamical RAM for               rhoin:       3.86 MB

     Dynamical RAM for            rho*nmix:      31.34 MB

     Dynamical RAM for           G-vectors:       2.08 MB

     Dynamical RAM for          h,s,v(r/c):       0.00 MB

     Dynamical RAM for          <psi|beta>:       0.01 MB

     Dynamical RAM for                 psi:       3.92 MB

     Dynamical RAM for                hpsi:       3.92 MB

     Dynamical RAM for      wfcinit/wfcrot:       6.43 MB

     Estimated static dynamical RAM per process >      77.48 MB

     Estimated max dynamical RAM per process >      85.34 MB

     Estimated total dynamical RAM >       4.00 GB
     Generating pointlists ...
     new r_m :   0.2063 (alat units)  1.6413 (a.u.) for type    1
     new r_m :   0.2063 (alat units)  1.6413 (a.u.) for type    2
     new r_m :   0.2063 (alat units)  1.6413 (a.u.) for type    3
     Reading meta-gga kinetic term

     The initial density is read from file :
     pwscf_output/pwscf.save/charge-density

     Starting wfcs are   52 randomized atomic wfcs

     total cpu time spent up to now is        8.0 secs

     Self-consistent Calculation

     iteration #  1     ecut=   800.00 Ry     beta= 0.10
     Davidson diagonalization with overlap
     c_bands:  1 eigenvalues not converged
     c_bands:  1 eigenvalues not converged
     c_bands:  3 eigenvalues not converged
     ethr =  1.00E-05,  avg # of iterations = 17.6

     total cpu time spent up to now is       32.4 secs

     total energy              =    -381.97414957 Ry
     estimated scf accuracy    <       0.04262489 Ry

     total magnetization       =    -0.00 Bohr mag/cell
     absolute magnetization    =     1.62 Bohr mag/cell

     iteration #  2     ecut=   800.00 Ry     beta= 0.10
     Davidson diagonalization with overlap
     ethr =  9.27E-05,  avg # of iterations =  1.0

     total cpu time spent up to now is       39.0 secs

     total energy              =    -381.97415547 Ry
     estimated scf accuracy    <       0.00199697 Ry

     total magnetization       =     0.00 Bohr mag/cell
     absolute magnetization    =     1.62 Bohr mag/cell

     iteration #  3     ecut=   800.00 Ry     beta= 0.10
     Davidson diagonalization with overlap
     ethr =  4.34E-06,  avg # of iterations =  1.1

     total cpu time spent up to now is       45.6 secs

     total energy              =    -381.97415618 Ry
     estimated scf accuracy    <       0.00003022 Ry

     total magnetization       =    -0.00 Bohr mag/cell
     absolute magnetization    =     1.62 Bohr mag/cell

     iteration #  4     ecut=   800.00 Ry     beta= 0.10
     Davidson diagonalization with overlap
     ethr =  6.57E-08,  avg # of iterations =  1.5

     total cpu time spent up to now is       52.3 secs

     total energy              =    -381.97415649 Ry
     estimated scf accuracy    <       0.00098554 Ry

     total magnetization       =    -0.00 Bohr mag/cell
     absolute magnetization    =     1.62 Bohr mag/cell

     iteration #  5     ecut=   800.00 Ry     beta= 0.10
     Davidson diagonalization with overlap
     ethr =  6.57E-08,  avg # of iterations =  1.0

     total cpu time spent up to now is       58.9 secs

     total energy              =    -381.97415650 Ry
     estimated scf accuracy    <       0.00134035 Ry

     total magnetization       =     0.00 Bohr mag/cell
     absolute magnetization    =     1.62 Bohr mag/cell

     iteration #  6     ecut=   800.00 Ry     beta= 0.10
     Davidson diagonalization with overlap
     ethr =  6.57E-08,  avg # of iterations =  1.0

     total cpu time spent up to now is       65.6 secs

     total energy              =    -381.97415651 Ry
     estimated scf accuracy    <       0.00015379 Ry

     total magnetization       =    -0.00 Bohr mag/cell
     absolute magnetization    =     1.62 Bohr mag/cell

     iteration #  7     ecut=   800.00 Ry     beta= 0.10
     Davidson diagonalization with overlap
     ethr =  6.57E-08,  avg # of iterations =  1.0

     total cpu time spent up to now is       72.2 secs

     total energy              =    -381.97415652 Ry
     estimated scf accuracy    <       0.00010718 Ry

     total magnetization       =     0.00 Bohr mag/cell
     absolute magnetization    =     1.62 Bohr mag/cell

     iteration #  8     ecut=   800.00 Ry     beta= 0.10
     Davidson diagonalization with overlap
     ethr =  6.57E-08,  avg # of iterations =  1.0

     total cpu time spent up to now is       78.8 secs

     total energy              =    -381.97415654 Ry
     estimated scf accuracy    <       0.00134030 Ry

     total magnetization       =     0.00 Bohr mag/cell
     absolute magnetization    =     1.62 Bohr mag/cell

     iteration #  9     ecut=   800.00 Ry     beta= 0.10
     Davidson diagonalization with overlap
     ethr =  6.57E-08,  avg # of iterations =  1.0

     total cpu time spent up to now is       85.4 secs

     total energy              =    -381.97415652 Ry
     estimated scf accuracy    <       0.00339354 Ry

     total magnetization       =     0.00 Bohr mag/cell
     absolute magnetization    =     1.62 Bohr mag/cell

     iteration # 10     ecut=   800.00 Ry     beta= 0.10
     Davidson diagonalization with overlap
     ethr =  6.57E-08,  avg # of iterations =  1.0

     total cpu time spent up to now is       92.1 secs

     total energy              =    -381.97415652 Ry
     estimated scf accuracy    <       0.00153170 Ry

     total magnetization       =     0.00 Bohr mag/cell
     absolute magnetization    =     1.62 Bohr mag/cell

     iteration # 11     ecut=   800.00 Ry     beta= 0.10
     Davidson diagonalization with overlap
     ethr =  6.57E-08,  avg # of iterations =  1.0

     total cpu time spent up to now is       98.7 secs

     total energy              =    -381.97415652 Ry
     estimated scf accuracy    <       0.00062000 Ry

     total magnetization       =     0.00 Bohr mag/cell
     absolute magnetization    =     1.62 Bohr mag/cell

     iteration # 12     ecut=   800.00 Ry     beta= 0.10
     Davidson diagonalization with overlap
     ethr =  6.57E-08,  avg # of iterations =  1.0

     total cpu time spent up to now is      105.4 secs

     total energy              =    -381.97415651 Ry
     estimated scf accuracy    <       0.00064805 Ry

     total magnetization       =    -0.00 Bohr mag/cell
     absolute magnetization    =     1.62 Bohr mag/cell

     iteration # 13     ecut=   800.00 Ry     beta= 0.10
     Davidson diagonalization with overlap
     ethr =  6.57E-08,  avg # of iterations =  2.8

     total cpu time spent up to now is      112.2 secs

     total energy              =    -381.97415651 Ry
     estimated scf accuracy    <       0.00048874 Ry

     total magnetization       =    -0.00 Bohr mag/cell
     absolute magnetization    =     1.62 Bohr mag/cell

     iteration # 14     ecut=   800.00 Ry     beta= 0.10
     Davidson diagonalization with overlap
     ethr =  6.57E-08,  avg # of iterations =  1.0

     total cpu time spent up to now is      118.9 secs

     total energy              =    -381.97415651 Ry
     estimated scf accuracy    <       0.00004665 Ry

     total magnetization       =    -0.00 Bohr mag/cell
     absolute magnetization    =     1.62 Bohr mag/cell

     iteration # 15     ecut=   800.00 Ry     beta= 0.10
     Davidson diagonalization with overlap
     ethr =  6.57E-08,  avg # of iterations =  1.0

     total cpu time spent up to now is      125.5 secs

     total energy              =    -381.97415651 Ry
     estimated scf accuracy    <       0.00004090 Ry

     total magnetization       =    -0.00 Bohr mag/cell
     absolute magnetization    =     1.62 Bohr mag/cell

     iteration # 16     ecut=   800.00 Ry     beta= 0.10
     Davidson diagonalization with overlap
     ethr =  6.57E-08,  avg # of iterations =  1.4

     total cpu time spent up to now is      132.2 secs

     total energy              =    -381.97415651 Ry
     estimated scf accuracy    <       0.00001281 Ry

     total magnetization       =    -0.00 Bohr mag/cell
     absolute magnetization    =     1.62 Bohr mag/cell

     iteration # 17     ecut=   800.00 Ry     beta= 0.10
     Davidson diagonalization with overlap
     ethr =  2.79E-08,  avg # of iterations =  1.0

     total cpu time spent up to now is      138.8 secs

     total energy              =    -381.97415651 Ry
     estimated scf accuracy    <       0.00000527 Ry

     total magnetization       =    -0.00 Bohr mag/cell
     absolute magnetization    =     1.62 Bohr mag/cell

     iteration # 18     ecut=   800.00 Ry     beta= 0.10
     Davidson diagonalization with overlap
     ethr =  1.15E-08,  avg # of iterations =  2.6

     total cpu time spent up to now is      145.7 secs

     total energy              =    -381.97415651 Ry
     estimated scf accuracy    <       0.00000812 Ry

     total magnetization       =    -0.00 Bohr mag/cell
     absolute magnetization    =     1.62 Bohr mag/cell

     iteration # 19     ecut=   800.00 Ry     beta= 0.10
     Davidson diagonalization with overlap
     ethr =  1.15E-08,  avg # of iterations =  1.0

     total cpu time spent up to now is      153.1 secs

     total energy              =    -381.97415651 Ry
     estimated scf accuracy    <       0.00000485 Ry

     total magnetization       =     0.00 Bohr mag/cell
     absolute magnetization    =     1.62 Bohr mag/cell

     iteration # 20     ecut=   800.00 Ry     beta= 0.10
     Davidson diagonalization with overlap
     ethr =  1.05E-08,  avg # of iterations =  1.0

     total cpu time spent up to now is      159.7 secs

     total energy              =    -381.97415651 Ry
     estimated scf accuracy    <       0.00000394 Ry

     total magnetization       =     0.00 Bohr mag/cell
     absolute magnetization    =     1.62 Bohr mag/cell

     iteration # 21     ecut=   800.00 Ry     beta= 0.10
     Davidson diagonalization with overlap
     ethr =  8.56E-09,  avg # of iterations =  1.0

     total cpu time spent up to now is      166.3 secs

     total energy              =    -381.97415651 Ry
     estimated scf accuracy    <       0.00000430 Ry

     total magnetization       =     0.00 Bohr mag/cell
     absolute magnetization    =     1.62 Bohr mag/cell

     iteration # 22     ecut=   800.00 Ry     beta= 0.10
     Davidson diagonalization with overlap
     ethr =  8.56E-09,  avg # of iterations =  1.0

     total cpu time spent up to now is      172.9 secs

     total energy              =    -381.97415651 Ry
     estimated scf accuracy    <       0.00000054 Ry

     total magnetization       =    -0.00 Bohr mag/cell
     absolute magnetization    =     1.62 Bohr mag/cell

     iteration # 23     ecut=   800.00 Ry     beta= 0.10
     Davidson diagonalization with overlap
     ethr =  1.18E-09,  avg # of iterations =  1.0

     total cpu time spent up to now is      179.6 secs

     total energy              =    -381.97415651 Ry
     estimated scf accuracy    <       0.00000099 Ry

     total magnetization       =    -0.00 Bohr mag/cell
     absolute magnetization    =     1.62 Bohr mag/cell

     iteration # 24     ecut=   800.00 Ry     beta= 0.10
     Davidson diagonalization with overlap
     ethr =  1.18E-09,  avg # of iterations =  1.0

     total cpu time spent up to now is      186.2 secs

     total energy              =    -381.97415651 Ry
     estimated scf accuracy    <       0.00000043 Ry

     total magnetization       =     0.00 Bohr mag/cell
     absolute magnetization    =     1.62 Bohr mag/cell

     iteration # 25     ecut=   800.00 Ry     beta= 0.10
     Davidson diagonalization with overlap
     ethr =  9.29E-10,  avg # of iterations =  1.0

     total cpu time spent up to now is      192.8 secs

     total energy              =    -381.97415651 Ry
     estimated scf accuracy    <       0.00000029 Ry

     total magnetization       =     0.00 Bohr mag/cell
     absolute magnetization    =     1.62 Bohr mag/cell

     iteration # 26     ecut=   800.00 Ry     beta= 0.10
     Davidson diagonalization with overlap
     ethr =  6.40E-10,  avg # of iterations =  1.0

     total cpu time spent up to now is      199.6 secs

     total energy              =    -381.97415651 Ry
     estimated scf accuracy    <       0.00000067 Ry

     total magnetization       =     0.00 Bohr mag/cell
     absolute magnetization    =     1.62 Bohr mag/cell

     iteration # 27     ecut=   800.00 Ry     beta= 0.10
     Davidson diagonalization with overlap
     ethr =  6.40E-10,  avg # of iterations =  1.0

     total cpu time spent up to now is      206.3 secs

     total energy              =    -381.97415651 Ry
     estimated scf accuracy    <          9.3E-10 Ry

     total magnetization       =    -0.00 Bohr mag/cell
     absolute magnetization    =     1.62 Bohr mag/cell

     iteration # 28     ecut=   800.00 Ry     beta= 0.10
     Davidson diagonalization with overlap
     ethr =  2.03E-12,  avg # of iterations =  1.0

     total cpu time spent up to now is      213.1 secs

     total energy              =    -381.97415651 Ry
     estimated scf accuracy    <          7.0E-10 Ry

     total magnetization       =     0.00 Bohr mag/cell
     absolute magnetization    =     1.62 Bohr mag/cell

     iteration # 29     ecut=   800.00 Ry     beta= 0.10
     Davidson diagonalization with overlap
     ethr =  1.52E-12,  avg # of iterations =  1.0

     total cpu time spent up to now is      219.7 secs

     total energy              =    -381.97415651 Ry
     estimated scf accuracy    <          2.1E-10 Ry

     total magnetization       =     0.00 Bohr mag/cell
     absolute magnetization    =     1.62 Bohr mag/cell

     iteration # 30     ecut=   800.00 Ry     beta= 0.10
     Davidson diagonalization with overlap
     ethr =  4.58E-13,  avg # of iterations =  1.0

     total cpu time spent up to now is      226.5 secs

     total energy              =    -381.97415651 Ry
     estimated scf accuracy    <          9.5E-09 Ry

     total magnetization       =     0.00 Bohr mag/cell
     absolute magnetization    =     1.62 Bohr mag/cell

     iteration # 31     ecut=   800.00 Ry     beta= 0.10
     Davidson diagonalization with overlap
     ethr =  4.58E-13,  avg # of iterations =  1.0

     total cpu time spent up to now is      233.1 secs

     total energy              =    -381.97415651 Ry
     estimated scf accuracy    <          1.6E-09 Ry

     total magnetization       =     0.00 Bohr mag/cell
     absolute magnetization    =     1.62 Bohr mag/cell

     iteration # 32     ecut=   800.00 Ry     beta= 0.10
     Davidson diagonalization with overlap
     ethr =  4.58E-13,  avg # of iterations =  1.0

     total cpu time spent up to now is      239.7 secs

     total energy              =    -381.97415651 Ry
     estimated scf accuracy    <       0.00000004 Ry

     total magnetization       =    -0.00 Bohr mag/cell
     absolute magnetization    =     1.62 Bohr mag/cell

     iteration # 33     ecut=   800.00 Ry     beta= 0.10
     Davidson diagonalization with overlap
     ethr =  4.58E-13,  avg # of iterations =  1.0

     total cpu time spent up to now is      246.3 secs

     total energy              =    -381.97415651 Ry
     estimated scf accuracy    <          4.6E-09 Ry

     total magnetization       =    -0.00 Bohr mag/cell
     absolute magnetization    =     1.62 Bohr mag/cell

     iteration # 34     ecut=   800.00 Ry     beta= 0.10
     Davidson diagonalization with overlap
     ethr =  4.58E-13,  avg # of iterations =  1.0

     total cpu time spent up to now is      252.9 secs

     total energy              =    -381.97415651 Ry
     estimated scf accuracy    <          1.5E-10 Ry

     total magnetization       =     0.00 Bohr mag/cell
     absolute magnetization    =     1.62 Bohr mag/cell

     iteration # 35     ecut=   800.00 Ry     beta= 0.10
     Davidson diagonalization with overlap
     ethr =  3.37E-13,  avg # of iterations =  1.0
 
     Magnetic moment per site:
     atom:    1    charge:   13.5552    magn:    0.0915    constr:    0.0000
     atom:    2    charge:    0.2474    magn:    0.0003    constr:    0.0000
     atom:    3    charge:    0.2474    magn:    0.0003    constr:    0.0000
     atom:    4    charge:    0.2474    magn:    0.0003    constr:    0.0000
     atom:    5    charge:    5.8717    magn:    0.0033    constr:    0.0000
     atom:    6    charge:    5.8355    magn:   -0.0656    constr:    0.0000
     atom:    7    charge:    5.8355    magn:   -0.0656    constr:    0.0000
     atom:    8    charge:    5.8355    magn:   -0.0656    constr:    0.0000

     total cpu time spent up to now is      259.4 secs

     End of self-consistent calculation

 ------ SPIN UP ------------


          k = 0.0000 0.0000 0.0000 (192431 PWs)   bands (ev):

   -80.4117 -44.5712 -44.5712 -44.5712 -11.8063 -10.4907 -10.4907 -10.2905
     2.7535   2.7535   2.7535   5.4275   5.4275   5.4275   5.5558   5.5558
     5.5558   6.8724   6.8724   6.8724   8.4116   8.4116   9.6833   9.6833
     9.6833  12.2594  17.7041  18.0732  18.0732  18.6523  18.6523  18.6523

     occupation numbers 
     1.0000   1.0000   1.0000   1.0000   1.0000   1.0000   1.0000   1.0000
     1.0000   1.0000   1.0000   1.0000   1.0000   1.0000   1.0000   1.0000
     1.0000   1.0000   1.0000   1.0000   1.0000   1.0000   1.0000   1.0000
     1.0000   0.0000   0.0000   0.0000   0.0000   0.0000   0.0000   0.0000

          k = 0.0000 0.0000-0.5000 (192616 PWs)   bands (ev):

   -80.4117 -44.5724 -44.5712 -44.5712 -11.1662 -11.0479 -10.4474 -10.2644
     3.3804   3.7402   3.7402   3.9024   3.9024   4.1902   4.8452   5.0346
     6.0331   6.0331   6.0929   6.0929   8.4156   9.6920   9.7404  10.5616
    10.5616  15.8858  16.0136  19.3238  19.7005  19.7005  20.2882  20.3671

     occupation numbers 
     1.0000   1.0000   1.0000   1.0000   1.0000   1.0000   1.0000   1.0000
     1.0000   1.0000   1.0000   1.0000   1.0000   1.0000   1.0000   1.0000
     1.0000   1.0000   1.0000   1.0000   1.0000   1.0000   1.0000   0.6314
     0.6314   0.0000   0.0000   0.0000   0.0000   0.0000   0.0000   0.0000

          k = 0.0000-0.5000-0.5000 (192516 PWs)   bands (ev):

   -80.4117 -44.5723 -44.5723 -44.5711 -10.7723 -10.6815 -10.6815 -10.5673
     2.7964   3.0516   3.3780   3.3780   4.0799   4.5440   4.5440   4.9109
     4.9293   6.1413   6.2061   6.2061   8.9008  10.5719  10.5719  10.9155
    11.3059  17.3851  17.3851  17.4429  17.5556  19.7961  19.9741  20.8470

     occupation numbers 
     1.0000   1.0000   1.0000   1.0000   1.0000   1.0000   1.0000   1.0000
     1.0000   1.0000   1.0000   1.0000   1.0000   1.0000   1.0000   1.0000
     1.0000   1.0000   1.0000   1.0000   1.0000   0.5352   0.5352   0.0000
     0.0000   0.0000   0.0000   0.0000   0.0000   0.0000   0.0000   0.0000

          k =-0.5000-0.5000-0.5000 (192672 PWs)   bands (ev):

   -80.4116 -44.5723 -44.5723 -44.5723 -10.6238 -10.6238 -10.6238 -10.5074
     2.0760   2.0760   2.0760   2.0771   4.0776   4.0776   6.0880   6.0880
     6.0880   6.1371   6.1371   6.1371  10.9418  10.9418  10.9418  11.3032
    11.3032  15.7599  15.7599  15.7599  15.8224  20.5215  21.1208  21.1208

     occupation numbers 
     1.0000   1.0000   1.0000   1.0000   1.0000   1.0000   1.0000   1.0000
     1.0000   1.0000   1.0000   1.0000   1.0000   1.0000   1.0000   1.0000
     1.0000   1.0000   1.0000   1.0000   0.0000   0.0000   0.0000   0.0000
     0.0000   0.0000   0.0000   0.0000   0.0000   0.0000   0.0000   0.0000

 ------ SPIN DOWN ----------


          k = 0.0000 0.0000 0.0000 (192431 PWs)   bands (ev):

   -79.4358 -43.8865 -43.8865 -43.8865 -11.8904 -10.6092 -10.6092 -10.3118
     2.7214   2.7214   2.7214   5.3245   5.3245   5.3245   5.4750   5.4750
     5.4750   6.7649   6.7649   6.7649   7.7418   7.7418   7.7418  12.3362
    12.4623  12.4623  17.8972  18.1102  18.1102  18.4584  18.4584  18.4584

     occupation numbers 
     1.0000   1.0000   1.0000   1.0000   1.0000   1.0000   1.0000   1.0000
     1.0000   1.0000   1.0000   1.0000   1.0000   1.0000   1.0000   1.0000
     1.0000   1.0000   1.0000   1.0000   1.0000   1.0000   1.0000   0.0000
     0.0000   0.0000   0.0000   0.0000   0.0000   0.0000   0.0000   0.0000

          k = 0.0000 0.0000-0.5000 (192616 PWs)   bands (ev):

   -79.4358 -43.8877 -43.8864 -43.8864 -11.2790 -11.1247 -10.5663 -10.3159
     3.6300   3.6300   3.7403   3.8339   3.8339   4.1207   4.9083   4.9383
     5.9162   5.9162   5.9438   5.9438   7.7703   8.5911   8.5911  12.4751
    13.0410  15.8737  16.3516  19.3511  19.7150  19.7150  20.3579  20.3947

     occupation numbers 
     1.0000   1.0000   1.0000   1.0000   1.0000   1.0000   1.0000   1.0000
     1.0000   1.0000   1.0000   1.0000   1.0000   1.0000   1.0000   1.0000
     1.0000   1.0000   1.0000   1.0000   1.0000   1.0000   1.0000   0.0000
     0.0000   0.0000   0.0000   0.0000   0.0000   0.0000   0.0000   0.0000

          k = 0.0000-0.5000-0.5000 (192516 PWs)   bands (ev):

   -79.4358 -43.8876 -43.8876 -43.8864 -10.8887 -10.8155 -10.8155 -10.5617
     2.8897   2.9543   3.3430   3.3430   4.3324   4.3324   4.7963   4.8831
     4.9344   6.0193   6.1562   6.1562   8.5822   8.5822   8.8190  12.6926
    14.5525  17.4619  17.4619  17.5150  17.5390  19.8529  20.0080  20.7337

     occupation numbers 
     1.0000   1.0000   1.0000   1.0000   1.0000   1.0000   1.0000   1.0000
     1.0000   1.0000   1.0000   1.0000   1.0000   1.0000   1.0000   1.0000
     1.0000   1.0000   1.0000   1.0000   1.0000   1.0000   1.0000   0.0000
     0.0000   0.0000   0.0000   0.0000   0.0000   0.0000   0.0000   0.0000

          k =-0.5000-0.5000-0.5000 (192672 PWs)   bands (ev):

   -79.4358 -43.8876 -43.8876 -43.8876 -10.7590 -10.7590 -10.7590 -10.5017
     1.9824   1.9824   1.9824   2.0717   4.8797   4.8797   5.9659   5.9659
     5.9659   6.0150   6.0150   6.0150   8.8944   8.8944   8.8944  14.5518
    14.5518  15.8479  15.8685  15.8685  15.8685  20.4714  21.0656  21.0656

     occupation numbers 
     1.0000   1.0000   1.0000   1.0000   1.0000   1.0000   1.0000   1.0000
     1.0000   1.0000   1.0000   1.0000   1.0000   1.0000   1.0000   1.0000
     1.0000   1.0000   1.0000   1.0000   1.0000   1.0000   1.0000   0.0000
     0.0000   0.0000   0.0000   0.0000   0.0000   0.0000   0.0000   0.0000

     the spin up/dw Fermi energies are    10.5755   11.6442 ev

!    total energy              =    -381.97415651 Ry
     estimated scf accuracy    <          1.0E-11 Ry
     smearing contrib. (-TS)   =      -0.00192213 Ry
     internal energy E=F+TS    =    -381.97223438 Ry

     The total energy is F=E-TS. E is the sum of the following terms:
     one-electron contribution =    -240.55806289 Ry
     hartree contribution      =     147.37924101 Ry
     xc contribution           =     -58.30542415 Ry
     ewald contribution        =    -230.48798836 Ry

     total magnetization       =    -0.00 Bohr mag/cell
     absolute magnetization    =     1.62 Bohr mag/cell

     convergence has been achieved in  35 iterations
     Writing meta-gga kinetic term

     Writing output data file pwscf_output/pwscf.save/
     Writing meta-gga kinetic term
 
     init_run     :      4.85s CPU      6.25s WALL (       1 calls)
     electrons    :    248.96s CPU    252.97s WALL (       1 calls)

     Called by init_run:
     wfcinit      :      4.00s CPU      4.16s WALL (       1 calls)
     wfcinit:atom :      0.02s CPU      0.02s WALL (       8 calls)
     wfcinit:wfcr :      3.91s CPU      4.07s WALL (       8 calls)
     potinit      :      0.23s CPU      1.30s WALL (       1 calls)
     hinit0       :      0.09s CPU      0.23s WALL (       1 calls)

     Called by electrons:
     c_bands      :    190.41s CPU    192.06s WALL (      35 calls)
     sum_band     :     49.66s CPU     50.17s WALL (      35 calls)
     v_of_rho     :      4.78s CPU      4.99s WALL (      36 calls)
     v_h          :      0.15s CPU      0.16s WALL (      36 calls)
     v_xc_meta    :      4.63s CPU      4.82s WALL (      36 calls)
     mix_rho      :      3.80s CPU      4.00s WALL (      35 calls)

     Called by c_bands:
     init_us_2    :      0.62s CPU      0.63s WALL (     568 calls)
     cegterg      :    188.83s CPU    190.43s WALL (     280 calls)

     Called by sum_band:
     sum_band:wei :      0.00s CPU      0.00s WALL (      35 calls)
     sum_band:loo :     48.32s CPU     48.72s WALL (      35 calls)
     sum_band:buf :      0.40s CPU      0.41s WALL (     280 calls)
     sum_band:ini :      0.31s CPU      0.31s WALL (     280 calls)

     Called by *egterg:
     cdiaghg      :      3.01s CPU      3.11s WALL (     728 calls)
     cegterg:over :      4.54s CPU      4.58s WALL (     448 calls)
     cegterg:upda :      2.90s CPU      2.92s WALL (     448 calls)
     cegterg:last :      1.94s CPU      1.95s WALL (     346 calls)
     cdiaghg:chol :      0.22s CPU      0.25s WALL (     728 calls)
     cdiaghg:inve :      0.04s CPU      0.04s WALL (     728 calls)
     cdiaghg:para :      0.20s CPU      0.20s WALL (    1456 calls)
     h_psi        :    178.26s CPU    179.86s WALL (     736 calls)
     g_psi        :      0.21s CPU      0.21s WALL (     448 calls)

     Called by h_psi:
     h_psi:calbec :      1.04s CPU      1.05s WALL (     736 calls)
     vloc_psi     :     42.97s CPU     43.36s WALL (     736 calls)
     add_vuspsi   :      1.38s CPU      1.40s WALL (     736 calls)
     h_psi_meta   :    132.12s CPU    133.27s WALL (     736 calls)

     General routines
     calbec       :      1.04s CPU      1.05s WALL (     736 calls)
     fft          :      1.98s CPU      2.37s WALL (     821 calls)
     ffts         :      0.28s CPU      0.33s WALL (     140 calls)
     fftw         :    184.03s CPU    185.63s WALL (  196272 calls)
     interpolate  :      0.02s CPU      0.02s WALL (      72 calls)
 
     Parallel routines
     fft_scatt_xy :     26.86s CPU     27.09s WALL (  197233 calls)
     fft_scatt_yz :     93.09s CPU     94.24s WALL (  197233 calls)
 
     PWSCF        :   4m14.44s CPU   4m48.96s WALL

 
   This run was terminated on:  12:13:17  19Nov2021            

=------------------------------------------------------------------------------=
   JOB DONE.
=------------------------------------------------------------------------------=
