
     Program PWSCF v.6.7MaX starts on 22Nov2021 at 11:22:54 

     This program is part of the open-source Quantum ESPRESSO suite
     for quantum simulation of materials; please cite
         "P. Giannozzi et al., J. Phys.:Condens. Matter 21 395502 (2009);
         "P. Giannozzi et al., J. Phys.:Condens. Matter 29 465901 (2017);
          URL http://www.quantum-espresso.org", 
     in publications or presentations arising from this work. More details at
     http://www.quantum-espresso.org/quote

     Parallel version (MPI), running on    48 processors

     MPI processes distributed on     1 nodes
     R & G space division:  proc/nbgrp/npool/nimage =      48
     Reading input from scf.in

     Current dimensions of program PWSCF are:
     Max number of different atomic species (ntypx) = 10
     Max number of k-points (npk) =  40000
     Max angular momentum in pseudopotentials (lmaxx) =  3
     Message from routine scan_end:
     No INFO block end statement, possibly corrupted file
     Message from routine scan_end:
     No INFO block end statement, possibly corrupted file
     Message from routine scan_end:
     No INFO block end statement, possibly corrupted file

     IMPORTANT: XC functional enforced from input :
     Exchange-correlation= PBE
                           (   1   4   3   4   0   0   0)
     Any further DFT definition will be discarded
     Please, verify this is what you really want


     Subspace diagonalization in iterative solution of the eigenvalue problem:
     one sub-group per band group will be used
     scalapack distributed-memory algorithm (size of sub-group:  6*  6 procs)

 
     Parallelization info
     --------------------
     sticks:   dense  smooth     PW     G-vecs:    dense   smooth      PW
     Min         336     336     87                32092    32092    4297
     Max         337     337     88                32097    32097    4304
     Sum       16141   16141   4221              1540499  1540499  206437
 


     bravais-lattice index     =            1
     lattice parameter (alat)  =       7.9576  a.u.
     unit-cell volume          =     503.9013 (a.u.)^3
     number of atoms/cell      =            8
     number of atomic types    =            3
     number of electrons       =        46.00 (up:  25.00, down:  21.00)
     number of Kohn-Sham states=           32
     kinetic-energy cutoff     =     800.0000  Ry
     charge density cutoff     =    3200.0000  Ry
     scf convergence threshold =      1.0E-10
     mixing beta               =       0.3000
     number of iterations used =            8  plain     mixing
     Exchange-correlation= PBE
                           (   1   4   3   4   0   0   0)

     celldm(1)=   7.957595  celldm(2)=   0.000000  celldm(3)=   0.000000
     celldm(4)=   0.000000  celldm(5)=   0.000000  celldm(6)=   0.000000

     crystal axes: (cart. coord. in units of alat)
               a(1) = (   1.000000   0.000000   0.000000 )  
               a(2) = (   0.000000   1.000000   0.000000 )  
               a(3) = (   0.000000   0.000000   1.000000 )  

     reciprocal axes: (cart. coord. in units 2 pi/alat)
               b(1) = (  1.000000  0.000000  0.000000 )  
               b(2) = (  0.000000  1.000000  0.000000 )  
               b(3) = (  0.000000  0.000000  1.000000 )  


     PseudoPot. # 1 for Fe read from file:
     /ascldap/users/jptowns/ferropericlase_spintransition/pseudos/Fe.ccECP.upf
     MD5 check sum: 375ee7e2ce333dc2f1485c86089d969e
     Pseudo is Norm-conserving, Zval = 16.0
     Generated by new atomic code, or converted to UPF format
     Using radial grid of 1160 points,  2 beta functions with: 
                l(1) =   1
                l(2) =   2

     PseudoPot. # 2 for Mg read from file:
     /ascldap/users/jptowns/ferropericlase_spintransition/pseudos/Mg.ccECP.upf
     MD5 check sum: 94218cb30fa6b3f6810c07405bb1118c
     Pseudo is Norm-conserving, Zval =  2.0
     Generated by new atomic code, or converted to UPF format
     Using radial grid of 1140 points,  2 beta functions with: 
                l(1) =   0
                l(2) =   2

     PseudoPot. # 3 for O  read from file:
     /ascldap/users/jptowns/ferropericlase_spintransition/pseudos/O.ccECP.upf
     MD5 check sum: f8511452b848d8673c004e477b4fc277
     Pseudo is Norm-conserving, Zval =  6.0
     Generated by new atomic code, or converted to UPF format
     Using radial grid of 1130 points,  1 beta functions with: 
                l(1) =   0

     atomic species   valence    mass     pseudopotential
        Fe            16.00    55.84500     Fe( 1.00)
        Mg             2.00    24.30500     Mg( 1.00)
        O              6.00    15.99900     O ( 1.00)

     Starting magnetic structure 
     atomic species   magnetization
        Fe           0.833
        Mg           0.000
        O            0.000


     Simplified LDA+U calculation (l_max = 2) with parameters (eV):
     atomic species    L          U    alpha       J0     beta
        Fe             2     5.0000   0.0000   0.0000   0.0000



     48 Sym. Ops., with inversion, found


                                    s                        frac. trans.

      isym =  1     identity                                     

 cryst.   s( 1) = (     1          0          0      )
                  (     0          1          0      )
                  (     0          0          1      )

 cart.    s( 1) = (  1.0000000  0.0000000  0.0000000 )
                  (  0.0000000  1.0000000  0.0000000 )
                  (  0.0000000  0.0000000  1.0000000 )


      isym =  2     180 deg rotation - cart. axis [0,0,1]        

 cryst.   s( 2) = (    -1          0          0      )
                  (     0         -1          0      )
                  (     0          0          1      )

 cart.    s( 2) = ( -1.0000000  0.0000000  0.0000000 )
                  (  0.0000000 -1.0000000  0.0000000 )
                  (  0.0000000  0.0000000  1.0000000 )


      isym =  3     180 deg rotation - cart. axis [0,1,0]        

 cryst.   s( 3) = (    -1          0          0      )
                  (     0          1          0      )
                  (     0          0         -1      )

 cart.    s( 3) = ( -1.0000000  0.0000000  0.0000000 )
                  (  0.0000000  1.0000000  0.0000000 )
                  (  0.0000000  0.0000000 -1.0000000 )


      isym =  4     180 deg rotation - cart. axis [1,0,0]        

 cryst.   s( 4) = (     1          0          0      )
                  (     0         -1          0      )
                  (     0          0         -1      )

 cart.    s( 4) = (  1.0000000  0.0000000  0.0000000 )
                  (  0.0000000 -1.0000000  0.0000000 )
                  (  0.0000000  0.0000000 -1.0000000 )


      isym =  5     180 deg rotation - cart. axis [1,1,0]        

 cryst.   s( 5) = (     0          1          0      )
                  (     1          0          0      )
                  (     0          0         -1      )

 cart.    s( 5) = (  0.0000000  1.0000000  0.0000000 )
                  (  1.0000000  0.0000000  0.0000000 )
                  (  0.0000000  0.0000000 -1.0000000 )


      isym =  6     180 deg rotation - cart. axis [1,-1,0]       

 cryst.   s( 6) = (     0         -1          0      )
                  (    -1          0          0      )
                  (     0          0         -1      )

 cart.    s( 6) = (  0.0000000 -1.0000000  0.0000000 )
                  ( -1.0000000  0.0000000  0.0000000 )
                  (  0.0000000  0.0000000 -1.0000000 )


      isym =  7      90 deg rotation - cart. axis [0,0,-1]       

 cryst.   s( 7) = (     0         -1          0      )
                  (     1          0          0      )
                  (     0          0          1      )

 cart.    s( 7) = (  0.0000000  1.0000000  0.0000000 )
                  ( -1.0000000  0.0000000  0.0000000 )
                  (  0.0000000  0.0000000  1.0000000 )


      isym =  8      90 deg rotation - cart. axis [0,0,1]        

 cryst.   s( 8) = (     0          1          0      )
                  (    -1          0          0      )
                  (     0          0          1      )

 cart.    s( 8) = (  0.0000000 -1.0000000  0.0000000 )
                  (  1.0000000  0.0000000  0.0000000 )
                  (  0.0000000  0.0000000  1.0000000 )


      isym =  9     180 deg rotation - cart. axis [1,0,1]        

 cryst.   s( 9) = (     0          0          1      )
                  (     0         -1          0      )
                  (     1          0          0      )

 cart.    s( 9) = (  0.0000000  0.0000000  1.0000000 )
                  (  0.0000000 -1.0000000  0.0000000 )
                  (  1.0000000  0.0000000  0.0000000 )


      isym = 10     180 deg rotation - cart. axis [-1,0,1]       

 cryst.   s(10) = (     0          0         -1      )
                  (     0         -1          0      )
                  (    -1          0          0      )

 cart.    s(10) = (  0.0000000  0.0000000 -1.0000000 )
                  (  0.0000000 -1.0000000  0.0000000 )
                  ( -1.0000000  0.0000000  0.0000000 )


      isym = 11      90 deg rotation - cart. axis [0,1,0]        

 cryst.   s(11) = (     0          0         -1      )
                  (     0          1          0      )
                  (     1          0          0      )

 cart.    s(11) = (  0.0000000  0.0000000  1.0000000 )
                  (  0.0000000  1.0000000  0.0000000 )
                  ( -1.0000000  0.0000000  0.0000000 )


      isym = 12      90 deg rotation - cart. axis [0,-1,0]       

 cryst.   s(12) = (     0          0          1      )
                  (     0          1          0      )
                  (    -1          0          0      )

 cart.    s(12) = (  0.0000000  0.0000000 -1.0000000 )
                  (  0.0000000  1.0000000  0.0000000 )
                  (  1.0000000  0.0000000  0.0000000 )


      isym = 13     180 deg rotation - cart. axis [0,1,1]        

 cryst.   s(13) = (    -1          0          0      )
                  (     0          0          1      )
                  (     0          1          0      )

 cart.    s(13) = ( -1.0000000  0.0000000  0.0000000 )
                  (  0.0000000  0.0000000  1.0000000 )
                  (  0.0000000  1.0000000  0.0000000 )


      isym = 14     180 deg rotation - cart. axis [0,1,-1]       

 cryst.   s(14) = (    -1          0          0      )
                  (     0          0         -1      )
                  (     0         -1          0      )

 cart.    s(14) = ( -1.0000000  0.0000000  0.0000000 )
                  (  0.0000000  0.0000000 -1.0000000 )
                  (  0.0000000 -1.0000000  0.0000000 )


      isym = 15      90 deg rotation - cart. axis [-1,0,0]       

 cryst.   s(15) = (     1          0          0      )
                  (     0          0         -1      )
                  (     0          1          0      )

 cart.    s(15) = (  1.0000000  0.0000000  0.0000000 )
                  (  0.0000000  0.0000000  1.0000000 )
                  (  0.0000000 -1.0000000  0.0000000 )


      isym = 16      90 deg rotation - cart. axis [1,0,0]        

 cryst.   s(16) = (     1          0          0      )
                  (     0          0          1      )
                  (     0         -1          0      )

 cart.    s(16) = (  1.0000000  0.0000000  0.0000000 )
                  (  0.0000000  0.0000000 -1.0000000 )
                  (  0.0000000  1.0000000  0.0000000 )


      isym = 17     120 deg rotation - cart. axis [-1,-1,-1]     

 cryst.   s(17) = (     0          0          1      )
                  (     1          0          0      )
                  (     0          1          0      )

 cart.    s(17) = (  0.0000000  1.0000000  0.0000000 )
                  (  0.0000000  0.0000000  1.0000000 )
                  (  1.0000000  0.0000000  0.0000000 )


      isym = 18     120 deg rotation - cart. axis [-1,1,1]       

 cryst.   s(18) = (     0          0         -1      )
                  (    -1          0          0      )
                  (     0          1          0      )

 cart.    s(18) = (  0.0000000 -1.0000000  0.0000000 )
                  (  0.0000000  0.0000000  1.0000000 )
                  ( -1.0000000  0.0000000  0.0000000 )


      isym = 19     120 deg rotation - cart. axis [1,1,-1]       

 cryst.   s(19) = (     0          0         -1      )
                  (     1          0          0      )
                  (     0         -1          0      )

 cart.    s(19) = (  0.0000000  1.0000000  0.0000000 )
                  (  0.0000000  0.0000000 -1.0000000 )
                  ( -1.0000000  0.0000000  0.0000000 )


      isym = 20     120 deg rotation - cart. axis [1,-1,1]       

 cryst.   s(20) = (     0          0          1      )
                  (    -1          0          0      )
                  (     0         -1          0      )

 cart.    s(20) = (  0.0000000 -1.0000000  0.0000000 )
                  (  0.0000000  0.0000000 -1.0000000 )
                  (  1.0000000  0.0000000  0.0000000 )


      isym = 21     120 deg rotation - cart. axis [1,1,1]        

 cryst.   s(21) = (     0          1          0      )
                  (     0          0          1      )
                  (     1          0          0      )

 cart.    s(21) = (  0.0000000  0.0000000  1.0000000 )
                  (  1.0000000  0.0000000  0.0000000 )
                  (  0.0000000  1.0000000  0.0000000 )


      isym = 22     120 deg rotation - cart. axis [-1,1,-1]      

 cryst.   s(22) = (     0         -1          0      )
                  (     0          0         -1      )
                  (     1          0          0      )

 cart.    s(22) = (  0.0000000  0.0000000  1.0000000 )
                  ( -1.0000000  0.0000000  0.0000000 )
                  (  0.0000000 -1.0000000  0.0000000 )


      isym = 23     120 deg rotation - cart. axis [1,-1,-1]      

 cryst.   s(23) = (     0         -1          0      )
                  (     0          0          1      )
                  (    -1          0          0      )

 cart.    s(23) = (  0.0000000  0.0000000 -1.0000000 )
                  ( -1.0000000  0.0000000  0.0000000 )
                  (  0.0000000  1.0000000  0.0000000 )


      isym = 24     120 deg rotation - cart. axis [-1,-1,1]      

 cryst.   s(24) = (     0          1          0      )
                  (     0          0         -1      )
                  (    -1          0          0      )

 cart.    s(24) = (  0.0000000  0.0000000 -1.0000000 )
                  (  1.0000000  0.0000000  0.0000000 )
                  (  0.0000000 -1.0000000  0.0000000 )


      isym = 25     inversion                                    

 cryst.   s(25) = (    -1          0          0      )
                  (     0         -1          0      )
                  (     0          0         -1      )

 cart.    s(25) = ( -1.0000000  0.0000000  0.0000000 )
                  (  0.0000000 -1.0000000  0.0000000 )
                  (  0.0000000  0.0000000 -1.0000000 )


      isym = 26     inv. 180 deg rotation - cart. axis [0,0,1]   

 cryst.   s(26) = (     1          0          0      )
                  (     0          1          0      )
                  (     0          0         -1      )

 cart.    s(26) = (  1.0000000  0.0000000  0.0000000 )
                  (  0.0000000  1.0000000  0.0000000 )
                  (  0.0000000  0.0000000 -1.0000000 )


      isym = 27     inv. 180 deg rotation - cart. axis [0,1,0]   

 cryst.   s(27) = (     1          0          0      )
                  (     0         -1          0      )
                  (     0          0          1      )

 cart.    s(27) = (  1.0000000  0.0000000  0.0000000 )
                  (  0.0000000 -1.0000000  0.0000000 )
                  (  0.0000000  0.0000000  1.0000000 )


      isym = 28     inv. 180 deg rotation - cart. axis [1,0,0]   

 cryst.   s(28) = (    -1          0          0      )
                  (     0          1          0      )
                  (     0          0          1      )

 cart.    s(28) = ( -1.0000000  0.0000000  0.0000000 )
                  (  0.0000000  1.0000000  0.0000000 )
                  (  0.0000000  0.0000000  1.0000000 )


      isym = 29     inv. 180 deg rotation - cart. axis [1,1,0]   

 cryst.   s(29) = (     0         -1          0      )
                  (    -1          0          0      )
                  (     0          0          1      )

 cart.    s(29) = (  0.0000000 -1.0000000  0.0000000 )
                  ( -1.0000000  0.0000000  0.0000000 )
                  (  0.0000000  0.0000000  1.0000000 )


      isym = 30     inv. 180 deg rotation - cart. axis [1,-1,0]  

 cryst.   s(30) = (     0          1          0      )
                  (     1          0          0      )
                  (     0          0          1      )

 cart.    s(30) = (  0.0000000  1.0000000  0.0000000 )
                  (  1.0000000  0.0000000  0.0000000 )
                  (  0.0000000  0.0000000  1.0000000 )


      isym = 31     inv.  90 deg rotation - cart. axis [0,0,-1]  

 cryst.   s(31) = (     0          1          0      )
                  (    -1          0          0      )
                  (     0          0         -1      )

 cart.    s(31) = (  0.0000000 -1.0000000  0.0000000 )
                  (  1.0000000  0.0000000  0.0000000 )
                  (  0.0000000  0.0000000 -1.0000000 )


      isym = 32     inv.  90 deg rotation - cart. axis [0,0,1]   

 cryst.   s(32) = (     0         -1          0      )
                  (     1          0          0      )
                  (     0          0         -1      )

 cart.    s(32) = (  0.0000000  1.0000000  0.0000000 )
                  ( -1.0000000  0.0000000  0.0000000 )
                  (  0.0000000  0.0000000 -1.0000000 )


      isym = 33     inv. 180 deg rotation - cart. axis [1,0,1]   

 cryst.   s(33) = (     0          0         -1      )
                  (     0          1          0      )
                  (    -1          0          0      )

 cart.    s(33) = (  0.0000000  0.0000000 -1.0000000 )
                  (  0.0000000  1.0000000  0.0000000 )
                  ( -1.0000000  0.0000000  0.0000000 )


      isym = 34     inv. 180 deg rotation - cart. axis [-1,0,1]  

 cryst.   s(34) = (     0          0          1      )
                  (     0          1          0      )
                  (     1          0          0      )

 cart.    s(34) = (  0.0000000  0.0000000  1.0000000 )
                  (  0.0000000  1.0000000  0.0000000 )
                  (  1.0000000  0.0000000  0.0000000 )


      isym = 35     inv.  90 deg rotation - cart. axis [0,1,0]   

 cryst.   s(35) = (     0          0          1      )
                  (     0         -1          0      )
                  (    -1          0          0      )

 cart.    s(35) = (  0.0000000  0.0000000 -1.0000000 )
                  (  0.0000000 -1.0000000  0.0000000 )
                  (  1.0000000  0.0000000  0.0000000 )


      isym = 36     inv.  90 deg rotation - cart. axis [0,-1,0]  

 cryst.   s(36) = (     0          0         -1      )
                  (     0         -1          0      )
                  (     1          0          0      )

 cart.    s(36) = (  0.0000000  0.0000000  1.0000000 )
                  (  0.0000000 -1.0000000  0.0000000 )
                  ( -1.0000000  0.0000000  0.0000000 )


      isym = 37     inv. 180 deg rotation - cart. axis [0,1,1]   

 cryst.   s(37) = (     1          0          0      )
                  (     0          0         -1      )
                  (     0         -1          0      )

 cart.    s(37) = (  1.0000000  0.0000000  0.0000000 )
                  (  0.0000000  0.0000000 -1.0000000 )
                  (  0.0000000 -1.0000000  0.0000000 )


      isym = 38     inv. 180 deg rotation - cart. axis [0,1,-1]  

 cryst.   s(38) = (     1          0          0      )
                  (     0          0          1      )
                  (     0          1          0      )

 cart.    s(38) = (  1.0000000  0.0000000  0.0000000 )
                  (  0.0000000  0.0000000  1.0000000 )
                  (  0.0000000  1.0000000  0.0000000 )


      isym = 39     inv.  90 deg rotation - cart. axis [-1,0,0]  

 cryst.   s(39) = (    -1          0          0      )
                  (     0          0          1      )
                  (     0         -1          0      )

 cart.    s(39) = ( -1.0000000  0.0000000  0.0000000 )
                  (  0.0000000  0.0000000 -1.0000000 )
                  (  0.0000000  1.0000000  0.0000000 )


      isym = 40     inv.  90 deg rotation - cart. axis [1,0,0]   

 cryst.   s(40) = (    -1          0          0      )
                  (     0          0         -1      )
                  (     0          1          0      )

 cart.    s(40) = ( -1.0000000  0.0000000  0.0000000 )
                  (  0.0000000  0.0000000  1.0000000 )
                  (  0.0000000 -1.0000000  0.0000000 )


      isym = 41     inv. 120 deg rotation - cart. axis [-1,-1,-1]

 cryst.   s(41) = (     0          0         -1      )
                  (    -1          0          0      )
                  (     0         -1          0      )

 cart.    s(41) = (  0.0000000 -1.0000000  0.0000000 )
                  (  0.0000000  0.0000000 -1.0000000 )
                  ( -1.0000000  0.0000000  0.0000000 )


      isym = 42     inv. 120 deg rotation - cart. axis [-1,1,1]  

 cryst.   s(42) = (     0          0          1      )
                  (     1          0          0      )
                  (     0         -1          0      )

 cart.    s(42) = (  0.0000000  1.0000000  0.0000000 )
                  (  0.0000000  0.0000000 -1.0000000 )
                  (  1.0000000  0.0000000  0.0000000 )


      isym = 43     inv. 120 deg rotation - cart. axis [1,1,-1]  

 cryst.   s(43) = (     0          0          1      )
                  (    -1          0          0      )
                  (     0          1          0      )

 cart.    s(43) = (  0.0000000 -1.0000000  0.0000000 )
                  (  0.0000000  0.0000000  1.0000000 )
                  (  1.0000000  0.0000000  0.0000000 )


      isym = 44     inv. 120 deg rotation - cart. axis [1,-1,1]  

 cryst.   s(44) = (     0          0         -1      )
                  (     1          0          0      )
                  (     0          1          0      )

 cart.    s(44) = (  0.0000000  1.0000000  0.0000000 )
                  (  0.0000000  0.0000000  1.0000000 )
                  ( -1.0000000  0.0000000  0.0000000 )


      isym = 45     inv. 120 deg rotation - cart. axis [1,1,1]   

 cryst.   s(45) = (     0         -1          0      )
                  (     0          0         -1      )
                  (    -1          0          0      )

 cart.    s(45) = (  0.0000000  0.0000000 -1.0000000 )
                  ( -1.0000000  0.0000000  0.0000000 )
                  (  0.0000000 -1.0000000  0.0000000 )


      isym = 46     inv. 120 deg rotation - cart. axis [-1,1,-1] 

 cryst.   s(46) = (     0          1          0      )
                  (     0          0          1      )
                  (    -1          0          0      )

 cart.    s(46) = (  0.0000000  0.0000000 -1.0000000 )
                  (  1.0000000  0.0000000  0.0000000 )
                  (  0.0000000  1.0000000  0.0000000 )


      isym = 47     inv. 120 deg rotation - cart. axis [1,-1,-1] 

 cryst.   s(47) = (     0          1          0      )
                  (     0          0         -1      )
                  (     1          0          0      )

 cart.    s(47) = (  0.0000000  0.0000000  1.0000000 )
                  (  1.0000000  0.0000000  0.0000000 )
                  (  0.0000000 -1.0000000  0.0000000 )


      isym = 48     inv. 120 deg rotation - cart. axis [-1,-1,1] 

 cryst.   s(48) = (     0         -1          0      )
                  (     0          0          1      )
                  (     1          0          0      )

 cart.    s(48) = (  0.0000000  0.0000000  1.0000000 )
                  ( -1.0000000  0.0000000  0.0000000 )
                  (  0.0000000  1.0000000  0.0000000 )


     point group O_h (m-3m) 
     there are 10 classes
     the character table:

       E     8C3   3C2   6C4   6C2'  i     8S6   3s_h  6S4   6s_d 
A_1g   1.00  1.00  1.00  1.00  1.00  1.00  1.00  1.00  1.00  1.00
A_2g   1.00  1.00  1.00 -1.00 -1.00  1.00  1.00  1.00 -1.00 -1.00
E_g    2.00 -1.00  2.00  0.00  0.00  2.00 -1.00  2.00  0.00  0.00
T_1g   3.00  0.00 -1.00  1.00 -1.00  3.00  0.00 -1.00  1.00 -1.00
T_2g   3.00  0.00 -1.00 -1.00  1.00  3.00  0.00 -1.00 -1.00  1.00
A_1u   1.00  1.00  1.00  1.00  1.00 -1.00 -1.00 -1.00 -1.00 -1.00
A_2u   1.00  1.00  1.00 -1.00 -1.00 -1.00 -1.00 -1.00  1.00  1.00
E_u    2.00 -1.00  2.00  0.00  0.00 -2.00  1.00 -2.00  0.00  0.00
T_1u   3.00  0.00 -1.00  1.00 -1.00 -3.00  0.00  1.00 -1.00  1.00
T_2u   3.00  0.00 -1.00 -1.00  1.00 -3.00  0.00  1.00  1.00 -1.00

     the symmetry operations in each class and the name of the first element:

     E        1
          identity                                               
     8C3     17   19   20   18   24   21   22   23
          120 deg rotation - cart. axis [-1,-1,-1]               
     3C2      2    4    3
          180 deg rotation - cart. axis [0,0,1]                  
     6C4      7    8   15   16   12   11
           90 deg rotation - cart. axis [0,0,-1]                 
     6C2'     5    6   14   13   10    9
          180 deg rotation - cart. axis [1,1,0]                  
     i       25
          inversion                                              
     8S6     41   43   44   42   48   45   46   47
          inv. 120 deg rotation - cart. axis [-1,-1,-1]          
     3s_h    26   28   27
          inv. 180 deg rotation - cart. axis [0,0,1]             
     6S4     31   32   39   40   36   35
          inv.  90 deg rotation - cart. axis [0,0,-1]            
     6s_d    29   30   38   37   34   33
          inv. 180 deg rotation - cart. axis [1,1,0]             

   Cartesian axes

     site n.     atom                  positions (alat units)
         1           Fe  tau(   1) = (   0.0000000   0.0000000   0.0000000  )
         2           Mg  tau(   2) = (   0.0000000   0.5000000   0.5000000  )
         3           Mg  tau(   3) = (   0.5000000   0.0000000   0.5000000  )
         4           Mg  tau(   4) = (   0.5000000   0.5000000   0.0000000  )
         5           O   tau(   5) = (   0.5000000   0.5000000   0.5000000  )
         6           O   tau(   6) = (   0.5000000   0.0000000   0.0000000  )
         7           O   tau(   7) = (   0.0000000   0.5000000   0.0000000  )
         8           O   tau(   8) = (   0.0000000   0.0000000   0.5000000  )

   Crystallographic axes

     site n.     atom                  positions (cryst. coord.)
         1           Fe  tau(   1) = (  0.0000000  0.0000000  0.0000000  )
         2           Mg  tau(   2) = (  0.0000000  0.5000000  0.5000000  )
         3           Mg  tau(   3) = (  0.5000000  0.0000000  0.5000000  )
         4           Mg  tau(   4) = (  0.5000000  0.5000000  0.0000000  )
         5           O   tau(   5) = (  0.5000000  0.5000000  0.5000000  )
         6           O   tau(   6) = (  0.5000000  0.0000000  0.0000000  )
         7           O   tau(   7) = (  0.0000000  0.5000000  0.0000000  )
         8           O   tau(   8) = (  0.0000000  0.0000000  0.5000000  )

     number of k points=     4  Fermi-Dirac smearing, width (Ry)=  0.0019
                       cart. coord. in units 2pi/alat
        k(    1) = (   0.0000000   0.0000000   0.0000000), wk =   0.1250000
        k(    2) = (   0.0000000   0.0000000  -0.5000000), wk =   0.3750000
        k(    3) = (   0.0000000  -0.5000000  -0.5000000), wk =   0.3750000
        k(    4) = (  -0.5000000  -0.5000000  -0.5000000), wk =   0.1250000

                       cryst. coord.
        k(    1) = (   0.0000000   0.0000000   0.0000000), wk =   0.1250000
        k(    2) = (   0.0000000   0.0000000  -0.5000000), wk =   0.3750000
        k(    3) = (   0.0000000  -0.5000000  -0.5000000), wk =   0.3750000
        k(    4) = (  -0.5000000  -0.5000000  -0.5000000), wk =   0.1250000

     Dense  grid:  1540499 G-vectors     FFT dimensions: ( 144, 144, 144)

     Dynamical RAM for                 wfc:       1.96 MB

     Dynamical RAM for     wfc (w. buffer):      17.63 MB

     Dynamical RAM for             U proj.:       0.31 MB

     Dynamical RAM for  U proj. (w. buff.):       2.75 MB

     Dynamical RAM for           str. fact:       1.47 MB

     Dynamical RAM for           local pot:       0.00 MB

     Dynamical RAM for          nlocal pot:       1.84 MB

     Dynamical RAM for                qrad:       1.94 MB

     Dynamical RAM for          rho,v,vnew:       5.79 MB

     Dynamical RAM for               rhoin:       1.93 MB

     Dynamical RAM for            rho*nmix:      15.67 MB

     Dynamical RAM for           G-vectors:       2.08 MB

     Dynamical RAM for          h,s,v(r/c):       0.00 MB

     Dynamical RAM for          <psi|beta>:       0.01 MB

     Dynamical RAM for                 psi:       3.92 MB

     Dynamical RAM for                hpsi:       3.92 MB

     Dynamical RAM for      wfcinit/wfcrot:       6.43 MB

     Estimated static dynamical RAM per process >      55.90 MB

     Estimated max dynamical RAM per process >      63.76 MB

     Estimated total dynamical RAM >       2.99 GB
     Generating pointlists ...
     new r_m :   0.2063 (alat units)  1.6413 (a.u.) for type    1
     new r_m :   0.2063 (alat units)  1.6413 (a.u.) for type    2
     new r_m :   0.2063 (alat units)  1.6413 (a.u.) for type    3

     Initial potential from superposition of free atoms

     starting charge   39.00170, renormalised to   46.00000

     negative rho (up, down):  5.502E-07 5.536E-07
 --- in v_hubbard ---
Hubbard energy    0.1470
 -------
     Number of +U iterations with fixed ns =  0
     Starting occupations:
 --- enter write_ns ---
 LDA+U parameters:
U( 1)     =  5.00000000
atom    1   Tr[ns(na)] (up, down, total) =   5.00000  1.00000  6.00000
   spin  1
    eigenvalues: 
  1.000  1.000  1.000  1.000  1.000
    eigenvectors:
  1.000  0.000  0.000  0.000  0.000
  0.000  1.000  0.000  0.000  0.000
  0.000  0.000  1.000  0.000  0.000
  0.000  0.000  0.000  1.000  0.000
  0.000  0.000  0.000  0.000  1.000
    occupations:
  1.000  0.000  0.000  0.000  0.000
  0.000  1.000  0.000  0.000  0.000
  0.000  0.000  1.000  0.000  0.000
  0.000  0.000  0.000  1.000  0.000
  0.000  0.000  0.000  0.000  1.000
   spin  2
    eigenvalues: 
  0.200  0.200  0.200  0.200  0.200
    eigenvectors:
  1.000  0.000  0.000  0.000  0.000
  0.000  1.000  0.000  0.000  0.000
  0.000  0.000  1.000  0.000  0.000
  0.000  0.000  0.000  1.000  0.000
  0.000  0.000  0.000  0.000  1.000
    occupations:
  0.200  0.000  0.000  0.000  0.000
  0.000  0.200  0.000  0.000  0.000
  0.000  0.000  0.200  0.000  0.000
  0.000  0.000  0.000  0.200  0.000
  0.000  0.000  0.000  0.000  0.200
atomic mag. moment =   4.00000
N of occupied +U levels =    6.000000
 --- exit write_ns ---
 Atomic wfc used for LDA+U Projector are NOT orthogonalized
     Starting wfcs are   52 randomized atomic wfcs

     total cpu time spent up to now is        4.2 secs

     Self-consistent Calculation

     iteration #  1     ecut=   800.00 Ry     beta= 0.30
     Davidson diagonalization with overlap
     ethr =  1.00E-02,  avg # of iterations =  9.2
 --- enter write_ns ---
 LDA+U parameters:
U( 1)     =  5.00000000
atom    1   Tr[ns(na)] (up, down, total) =   0.26065  0.12730  0.38795
   spin  1
    eigenvalues: 
  0.043  0.043  0.043  0.065  0.065
    eigenvectors:
  0.000  0.000  0.000  0.033  0.967
  0.135  0.012  0.853  0.000  0.000
  0.350  0.546  0.104  0.000  0.000
  0.000  0.000  0.000  0.967  0.033
  0.515  0.442  0.043  0.000  0.000
    occupations:
  0.065 -0.000 -0.000  0.000  0.000
 -0.000  0.043 -0.000  0.000  0.000
 -0.000 -0.000  0.043  0.000  0.000
  0.000  0.000  0.000  0.065 -0.000
  0.000  0.000  0.000 -0.000  0.043
   spin  2
    eigenvalues: 
  0.014  0.014  0.014  0.043  0.043
    eigenvectors:
  0.000  0.000  0.000  0.019  0.981
  0.144  0.002  0.854  0.000  0.000
  0.384  0.532  0.084  0.000  0.000
  0.000  0.000  0.000  0.981  0.019
  0.472  0.466  0.062  0.000  0.000
    occupations:
  0.043 -0.000 -0.000  0.000  0.000
 -0.000  0.014 -0.000  0.000  0.000
 -0.000 -0.000  0.014  0.000  0.000
  0.000  0.000  0.000  0.043 -0.000
  0.000  0.000  0.000 -0.000  0.014
atomic mag. moment =   0.13334
N of occupied +U levels =    0.387952
 --- exit write_ns ---

     negative rho (up, down):  2.773E-07 3.039E-07
 --- in v_hubbard ---
Hubbard energy    0.0679
 -------

     total cpu time spent up to now is        8.7 secs

     total energy              =    -370.30709102 Ry
     estimated scf accuracy    <      63.58685054 Ry

     total magnetization       =     4.00 Bohr mag/cell
     absolute magnetization    =     4.29 Bohr mag/cell

     iteration #  2     ecut=   800.00 Ry     beta= 0.30
     Davidson diagonalization with overlap
     ethr =  1.00E-02,  avg # of iterations =  7.5
 --- enter write_ns ---
 LDA+U parameters:
U( 1)     =  5.00000000
atom    1   Tr[ns(na)] (up, down, total) =   4.38621  1.13904  5.52525
   spin  1
    eigenvalues: 
  0.876  0.876  0.878  0.878  0.878
    eigenvectors:
  0.008  0.992  0.000  0.000  0.000
  0.000  0.000  0.113  0.001  0.887
  0.000  0.000  0.413  0.525  0.062
  0.992  0.008  0.000  0.000  0.000
  0.000  0.000  0.474  0.474  0.052
    occupations:
  0.876 -0.000 -0.000  0.000  0.000
 -0.000  0.878 -0.000  0.000  0.000
 -0.000 -0.000  0.878  0.000  0.000
  0.000  0.000  0.000  0.876 -0.000
  0.000  0.000  0.000 -0.000  0.878
   spin  2
    eigenvalues: 
  0.144  0.144  0.144  0.354  0.354
    eigenvectors:
  0.000  0.000  0.000  0.000  1.000
  0.093  0.036  0.872  0.000  0.000
  0.349  0.535  0.116  0.000  0.000
  0.000  0.000  0.000  1.000  0.000
  0.558  0.429  0.012  0.000  0.000
    occupations:
  0.354 -0.000 -0.000  0.000  0.000
 -0.000  0.144 -0.000  0.000  0.000
 -0.000 -0.000  0.144  0.000  0.000
  0.000  0.000  0.000  0.354 -0.000
  0.000  0.000  0.000 -0.000  0.144
atomic mag. moment =   3.24717
N of occupied +U levels =    5.525252
 --- exit write_ns ---

     negative rho (up, down):  1.334E-07 1.513E-07
 --- in v_hubbard ---
Hubbard energy    0.2576
 -------

     total cpu time spent up to now is       12.8 secs

     total energy              =    -380.21378765 Ry
     estimated scf accuracy    <       3.44748388 Ry

     total magnetization       =     4.00 Bohr mag/cell
     absolute magnetization    =     4.08 Bohr mag/cell

     iteration #  3     ecut=   800.00 Ry     beta= 0.30
     Davidson diagonalization with overlap
     ethr =  7.49E-03,  avg # of iterations =  3.4
 --- enter write_ns ---
 LDA+U parameters:
U( 1)     =  5.00000000
atom    1   Tr[ns(na)] (up, down, total) =   4.74651  1.23336  5.97987
   spin  1
    eigenvalues: 
  0.878  0.878  0.997  0.997  0.997
    eigenvectors:
  0.000  1.000  0.000  0.000  0.000
  0.000  0.000  0.121  0.000  0.878
  0.000  0.000  0.352  0.601  0.047
  1.000  0.000  0.000  0.000  0.000
  0.000  0.000  0.526  0.399  0.075
    occupations:
  0.878 -0.000 -0.000  0.000  0.000
 -0.000  0.997 -0.000  0.000  0.000
 -0.000 -0.000  0.997  0.000  0.000
  0.000  0.000  0.000  0.878 -0.000
  0.000  0.000  0.000 -0.000  0.997
   spin  2
    eigenvalues: 
  0.226  0.226  0.226  0.278  0.278
    eigenvectors:
  0.000  0.000  0.000  0.052  0.948
  0.120  0.019  0.861  0.000  0.000
  0.418  0.465  0.117  0.000  0.000
  0.000  0.000  0.000  0.948  0.052
  0.462  0.516  0.022  0.000  0.000
    occupations:
  0.278 -0.000 -0.000  0.000  0.000
 -0.000  0.226 -0.000  0.000  0.000
 -0.000 -0.000  0.226  0.000  0.000
  0.000  0.000  0.000  0.278 -0.000
  0.000  0.000  0.000 -0.000  0.226
atomic mag. moment =   3.51315
N of occupied +U levels =    5.979869
 --- exit write_ns ---

     negative rho (up, down):  0.000E+00 1.487E-08
 --- in v_hubbard ---
Hubbard energy    0.3416
 -------

     total cpu time spent up to now is       15.4 secs

     total energy              =    -381.29249059 Ry
     estimated scf accuracy    <       1.40095830 Ry

     total magnetization       =     4.00 Bohr mag/cell
     absolute magnetization    =     4.10 Bohr mag/cell

     iteration #  4     ecut=   800.00 Ry     beta= 0.30
     Davidson diagonalization with overlap
     ethr =  3.05E-03,  avg # of iterations =  4.6
 --- enter write_ns ---
 LDA+U parameters:
U( 1)     =  5.00000000
atom    1   Tr[ns(na)] (up, down, total) =   4.75476  1.14373  5.89850
   spin  1
    eigenvalues: 
  0.879  0.879  0.999  0.999  0.999
    eigenvectors:
  0.000  1.000  0.000  0.000  0.000
  0.000  0.000  0.110  0.002  0.889
  0.000  0.000  0.379  0.560  0.061
  1.000  0.000  0.000  0.000  0.000
  0.000  0.000  0.511  0.439  0.050
    occupations:
  0.879 -0.000 -0.000  0.000  0.000
 -0.000  0.999 -0.000  0.000  0.000
 -0.000 -0.000  0.999  0.000  0.000
  0.000  0.000  0.000  0.879 -0.000
  0.000  0.000  0.000 -0.000  0.999
   spin  2
    eigenvalues: 
  0.137  0.137  0.290  0.290  0.290
    eigenvectors:
  0.018  0.982  0.000  0.000  0.000
  0.000  0.000  0.107  0.015  0.878
  0.000  0.000  0.360  0.547  0.093
  0.982  0.018  0.000  0.000  0.000
  0.000  0.000  0.533  0.439  0.029
    occupations:
  0.137 -0.000 -0.000  0.000  0.000
 -0.000  0.290 -0.000  0.000  0.000
 -0.000 -0.000  0.290  0.000  0.000
  0.000  0.000  0.000  0.137 -0.000
  0.000  0.000  0.000 -0.000  0.290
atomic mag. moment =   3.61103
N of occupied +U levels =    5.898496
 --- exit write_ns ---
 --- in v_hubbard ---
Hubbard energy    0.2481
 -------

     total cpu time spent up to now is       18.0 secs

     total energy              =    -381.70224430 Ry
     estimated scf accuracy    <       0.50030786 Ry

     total magnetization       =     4.00 Bohr mag/cell
     absolute magnetization    =     4.07 Bohr mag/cell

     iteration #  5     ecut=   800.00 Ry     beta= 0.30
     Davidson diagonalization with overlap
     ethr =  1.09E-03,  avg # of iterations =  5.0
 --- enter write_ns ---
 LDA+U parameters:
U( 1)     =  5.00000000
atom    1   Tr[ns(na)] (up, down, total) =   4.87361  1.50887  6.38249
   spin  1
    eigenvalues: 
  0.939  0.939  0.999  0.999  0.999
    eigenvectors:
  0.002  0.998  0.000  0.000  0.000
  0.000  0.000  0.116  0.015  0.869
  0.000  0.000  0.373  0.527  0.101
  0.998  0.002  0.000  0.000  0.000
  0.000  0.000  0.511  0.459  0.030
    occupations:
  0.939 -0.000 -0.000  0.000  0.000
 -0.000  0.999 -0.000  0.000  0.000
 -0.000 -0.000  0.999  0.000  0.000
  0.000  0.000  0.000  0.939 -0.000
  0.000  0.000  0.000 -0.000  0.999
   spin  2
    eigenvalues: 
  0.172  0.172  0.389  0.389  0.389
    eigenvectors:
  0.006  0.994  0.000  0.000  0.000
  0.000  0.000  0.113  0.023  0.864
  0.000  0.000  0.365  0.521  0.114
  0.994  0.006  0.000  0.000  0.000
  0.000  0.000  0.522  0.456  0.023
    occupations:
  0.172 -0.000 -0.000  0.000  0.000
 -0.000  0.389 -0.000  0.000  0.000
 -0.000 -0.000  0.389  0.000  0.000
  0.000  0.000  0.000  0.172 -0.000
  0.000  0.000  0.000 -0.000  0.389
atomic mag. moment =   3.36474
N of occupied +U levels =    6.382487
 --- exit write_ns ---
 --- in v_hubbard ---
Hubbard energy    0.1909
 -------

     total cpu time spent up to now is       20.8 secs

     total energy              =    -381.87988350 Ry
     estimated scf accuracy    <       0.08081892 Ry

     total magnetization       =     4.00 Bohr mag/cell
     absolute magnetization    =     4.03 Bohr mag/cell

     iteration #  6     ecut=   800.00 Ry     beta= 0.30
     Davidson diagonalization with overlap
     ethr =  1.76E-04,  avg # of iterations =  4.6
 --- enter write_ns ---
 LDA+U parameters:
U( 1)     =  5.00000000
atom    1   Tr[ns(na)] (up, down, total) =   4.98590  1.44927  6.43517
   spin  1
    eigenvalues: 
  0.997  0.997  0.997  0.998  0.998
    eigenvectors:
  0.000  0.000  0.000  0.009  0.991
  0.131  0.002  0.867  0.000  0.000
  0.368  0.560  0.072  0.000  0.000
  0.000  0.000  0.000  0.991  0.009
  0.501  0.438  0.061  0.000  0.000
    occupations:
  0.998 -0.000 -0.000  0.000  0.000
 -0.000  0.997 -0.000  0.000  0.000
 -0.000 -0.000  0.997  0.000  0.000
  0.000  0.000  0.000  0.998 -0.000
  0.000  0.000  0.000 -0.000  0.997
   spin  2
    eigenvalues: 
  0.152  0.152  0.382  0.382  0.382
    eigenvectors:
  0.006  0.994  0.000  0.000  0.000
  0.000  0.000  0.103  0.009  0.888
  0.000  0.000  0.424  0.492  0.085
  0.994  0.006  0.000  0.000  0.000
  0.000  0.000  0.473  0.500  0.027
    occupations:
  0.152 -0.000 -0.000  0.000  0.000
 -0.000  0.382 -0.000  0.000  0.000
 -0.000 -0.000  0.382  0.000  0.000
  0.000  0.000  0.000  0.152 -0.000
  0.000  0.000  0.000 -0.000  0.382
atomic mag. moment =   3.53664
N of occupied +U levels =    6.435171
 --- exit write_ns ---
 --- in v_hubbard ---
Hubbard energy    0.1872
 -------

     total cpu time spent up to now is       23.6 secs

     total energy              =    -381.96117240 Ry
     estimated scf accuracy    <       0.01731873 Ry

     total magnetization       =     4.00 Bohr mag/cell
     absolute magnetization    =     4.07 Bohr mag/cell

     iteration #  7     ecut=   800.00 Ry     beta= 0.30
     Davidson diagonalization with overlap
     ethr =  3.76E-05,  avg # of iterations =  4.1
 --- enter write_ns ---
 LDA+U parameters:
U( 1)     =  5.00000000
atom    1   Tr[ns(na)] (up, down, total) =   4.98161  1.40804  6.38965
   spin  1
    eigenvalues: 
  0.996  0.996  0.996  0.997  0.997
    eigenvectors:
  0.000  0.000  0.000  0.004  0.996
  0.133  0.043  0.824  0.000  0.000
  0.355  0.487  0.159  0.000  0.000
  0.000  0.000  0.000  0.996  0.004
  0.513  0.470  0.017  0.000  0.000
    occupations:
  0.997 -0.000 -0.000  0.000  0.000
 -0.000  0.996 -0.000  0.000  0.000
 -0.000 -0.000  0.996  0.000  0.000
  0.000  0.000  0.000  0.997 -0.000
  0.000  0.000  0.000 -0.000  0.996
   spin  2
    eigenvalues: 
  0.142  0.142  0.375  0.375  0.375
    eigenvectors:
  0.530  0.470  0.000  0.000  0.000
  0.000  0.000  0.099  0.001  0.900
  0.000  0.000  0.371  0.600  0.029
  0.470  0.530  0.000  0.000  0.000
  0.000  0.000  0.531  0.399  0.071
    occupations:
  0.142 -0.000 -0.000  0.000  0.000
 -0.000  0.375 -0.000  0.000  0.000
 -0.000 -0.000  0.375  0.000  0.000
  0.000  0.000  0.000  0.142 -0.000
  0.000  0.000  0.000 -0.000  0.375
atomic mag. moment =   3.57357
N of occupied +U levels =    6.389649
 --- exit write_ns ---
 --- in v_hubbard ---
Hubbard energy    0.1794
 -------

     total cpu time spent up to now is       26.3 secs

     total energy              =    -381.96459950 Ry
     estimated scf accuracy    <       0.00507893 Ry

     total magnetization       =     4.00 Bohr mag/cell
     absolute magnetization    =     4.09 Bohr mag/cell

     iteration #  8     ecut=   800.00 Ry     beta= 0.30
     Davidson diagonalization with overlap
     ethr =  1.10E-05,  avg # of iterations =  2.1
 --- enter write_ns ---
 LDA+U parameters:
U( 1)     =  5.00000000
atom    1   Tr[ns(na)] (up, down, total) =   4.98288  1.42344  6.40632
   spin  1
    eigenvalues: 
  0.996  0.996  0.996  0.998  0.998
    eigenvectors:
  0.000  0.000  0.000  0.011  0.989
  0.101  0.004  0.895  0.000  0.000
  0.369  0.565  0.066  0.000  0.000
  0.000  0.000  0.000  0.989  0.011
  0.530  0.431  0.040  0.000  0.000
    occupations:
  0.998 -0.000 -0.000  0.000  0.000
 -0.000  0.996 -0.000  0.000  0.000
 -0.000 -0.000  0.996  0.000  0.000
  0.000  0.000  0.000  0.998 -0.000
  0.000  0.000  0.000 -0.000  0.996
   spin  2
    eigenvalues: 
  0.142  0.142  0.380  0.380  0.380
    eigenvectors:
  0.042  0.958  0.000  0.000  0.000
  0.000  0.000  0.103  0.005  0.892
  0.000  0.000  0.385  0.545  0.071
  0.958  0.042  0.000  0.000  0.000
  0.000  0.000  0.512  0.450  0.037
    occupations:
  0.142 -0.000 -0.000  0.000  0.000
 -0.000  0.380 -0.000  0.000  0.000
 -0.000 -0.000  0.380  0.000  0.000
  0.000  0.000  0.000  0.142 -0.000
  0.000  0.000  0.000 -0.000  0.380
atomic mag. moment =   3.55944
N of occupied +U levels =    6.406320
 --- exit write_ns ---
 --- in v_hubbard ---
Hubbard energy    0.1789
 -------

     total cpu time spent up to now is       28.8 secs

     total energy              =    -381.96546585 Ry
     estimated scf accuracy    <       0.00048442 Ry

     total magnetization       =     4.00 Bohr mag/cell
     absolute magnetization    =     4.10 Bohr mag/cell

     iteration #  9     ecut=   800.00 Ry     beta= 0.30
     Davidson diagonalization with overlap
     ethr =  1.05E-06,  avg # of iterations =  4.8
 --- enter write_ns ---
 LDA+U parameters:
U( 1)     =  5.00000000
atom    1   Tr[ns(na)] (up, down, total) =   4.98340  1.42713  6.41053
   spin  1
    eigenvalues: 
  0.996  0.996  0.996  0.998  0.998
    eigenvectors:
  0.000  0.000  0.000  0.007  0.993
  0.118  0.023  0.859  0.000  0.000
  0.345  0.540  0.115  0.000  0.000
  0.000  0.000  0.000  0.993  0.007
  0.537  0.436  0.026  0.000  0.000
    occupations:
  0.998 -0.000 -0.000  0.000  0.000
 -0.000  0.996 -0.000  0.000  0.000
 -0.000 -0.000  0.996  0.000  0.000
  0.000  0.000  0.000  0.998 -0.000
  0.000  0.000  0.000 -0.000  0.996
   spin  2
    eigenvalues: 
  0.141  0.141  0.382  0.382  0.382
    eigenvectors:
  0.007  0.993  0.000  0.000  0.000
  0.000  0.000  0.133  0.015  0.852
  0.000  0.000  0.406  0.475  0.119
  0.993  0.007  0.000  0.000  0.000
  0.000  0.000  0.461  0.510  0.030
    occupations:
  0.141 -0.000 -0.000  0.000  0.000
 -0.000  0.382 -0.000  0.000  0.000
 -0.000 -0.000  0.382  0.000  0.000
  0.000  0.000  0.000  0.141 -0.000
  0.000  0.000  0.000 -0.000  0.382
atomic mag. moment =   3.55626
N of occupied +U levels =    6.410529
 --- exit write_ns ---
 --- in v_hubbard ---
Hubbard energy    0.1772
 -------

     total cpu time spent up to now is       31.6 secs

     total energy              =    -381.96552029 Ry
     estimated scf accuracy    <       0.00017699 Ry

     total magnetization       =     4.00 Bohr mag/cell
     absolute magnetization    =     4.10 Bohr mag/cell

     iteration # 10     ecut=   800.00 Ry     beta= 0.30
     Davidson diagonalization with overlap
     ethr =  3.85E-07,  avg # of iterations =  3.2
 --- enter write_ns ---
 LDA+U parameters:
U( 1)     =  5.00000000
atom    1   Tr[ns(na)] (up, down, total) =   4.98221  1.41503  6.39724
   spin  1
    eigenvalues: 
  0.996  0.996  0.996  0.998  0.998
    eigenvectors:
  0.000  0.000  0.000  0.003  0.997
  0.116  0.012  0.872  0.000  0.000
  0.376  0.529  0.095  0.000  0.000
  0.000  0.000  0.000  0.997  0.003
  0.508  0.459  0.033  0.000  0.000
    occupations:
  0.998 -0.000 -0.000  0.000  0.000
 -0.000  0.996 -0.000  0.000  0.000
 -0.000 -0.000  0.996  0.000  0.000
  0.000  0.000  0.000  0.998 -0.000
  0.000  0.000  0.000 -0.000  0.996
   spin  2
    eigenvalues: 
  0.138  0.138  0.380  0.380  0.380
    eigenvectors:
  0.022  0.978  0.000  0.000  0.000
  0.000  0.000  0.129  0.049  0.821
  0.000  0.000  0.333  0.505  0.162
  0.978  0.022  0.000  0.000  0.000
  0.000  0.000  0.538  0.446  0.016
    occupations:
  0.138 -0.000 -0.000  0.000  0.000
 -0.000  0.380 -0.000  0.000  0.000
 -0.000 -0.000  0.380  0.000  0.000
  0.000  0.000  0.000  0.138 -0.000
  0.000  0.000  0.000 -0.000  0.380
atomic mag. moment =   3.56718
N of occupied +U levels =    6.397238
 --- exit write_ns ---
 --- in v_hubbard ---
Hubbard energy    0.1772
 -------

     total cpu time spent up to now is       34.5 secs

     total energy              =    -381.96554722 Ry
     estimated scf accuracy    <       0.00046824 Ry

     total magnetization       =     4.00 Bohr mag/cell
     absolute magnetization    =     4.11 Bohr mag/cell

     iteration # 11     ecut=   800.00 Ry     beta= 0.30
     Davidson diagonalization with overlap
     ethr =  3.85E-07,  avg # of iterations =  2.4
 --- enter write_ns ---
 LDA+U parameters:
U( 1)     =  5.00000000
atom    1   Tr[ns(na)] (up, down, total) =   4.98285  1.42189  6.40474
   spin  1
    eigenvalues: 
  0.996  0.996  0.996  0.998  0.998
    eigenvectors:
  0.000  0.000  0.000  0.012  0.988
  0.114  0.005  0.881  0.000  0.000
  0.378  0.545  0.077  0.000  0.000
  0.000  0.000  0.000  0.988  0.012
  0.508  0.450  0.042  0.000  0.000
    occupations:
  0.998 -0.000 -0.000  0.000  0.000
 -0.000  0.996 -0.000  0.000  0.000
 -0.000 -0.000  0.996  0.000  0.000
  0.000  0.000  0.000  0.998 -0.000
  0.000  0.000  0.000 -0.000  0.996
   spin  2
    eigenvalues: 
  0.139  0.139  0.381  0.381  0.381
    eigenvectors:
  0.002  0.998  0.000  0.000  0.000
  0.000  0.000  0.101  0.001  0.898
  0.000  0.000  0.406  0.556  0.038
  0.998  0.002  0.000  0.000  0.000
  0.000  0.000  0.492  0.444  0.064
    occupations:
  0.139 -0.000 -0.000  0.000  0.000
 -0.000  0.381 -0.000  0.000  0.000
 -0.000 -0.000  0.381  0.000  0.000
  0.000  0.000  0.000  0.139 -0.000
  0.000  0.000  0.000 -0.000  0.381
atomic mag. moment =   3.56096
N of occupied +U levels =    6.404742
 --- exit write_ns ---
 --- in v_hubbard ---
Hubbard energy    0.1772
 -------

     total cpu time spent up to now is       37.0 secs

     total energy              =    -381.96558806 Ry
     estimated scf accuracy    <       0.00003064 Ry

     total magnetization       =     4.00 Bohr mag/cell
     absolute magnetization    =     4.11 Bohr mag/cell

     iteration # 12     ecut=   800.00 Ry     beta= 0.30
     Davidson diagonalization with overlap
     ethr =  6.66E-08,  avg # of iterations =  3.4
 --- enter write_ns ---
 LDA+U parameters:
U( 1)     =  5.00000000
atom    1   Tr[ns(na)] (up, down, total) =   4.98306  1.42427  6.40733
   spin  1
    eigenvalues: 
  0.996  0.996  0.996  0.998  0.998
    eigenvectors:
  0.000  0.000  0.000  0.004  0.996
  0.116  0.017  0.868  0.000  0.000
  0.357  0.541  0.102  0.000  0.000
  0.000  0.000  0.000  0.996  0.004
  0.528  0.442  0.030  0.000  0.000
    occupations:
  0.998 -0.000 -0.000  0.000  0.000
 -0.000  0.996 -0.000  0.000  0.000
 -0.000 -0.000  0.996  0.000  0.000
  0.000  0.000  0.000  0.998 -0.000
  0.000  0.000  0.000 -0.000  0.996
   spin  2
    eigenvalues: 
  0.139  0.139  0.382  0.382  0.382
    eigenvectors:
  0.004  0.996  0.000  0.000  0.000
  0.000  0.000  0.122  0.009  0.869
  0.000  0.000  0.386  0.520  0.093
  0.996  0.004  0.000  0.000  0.000
  0.000  0.000  0.492  0.471  0.037
    occupations:
  0.139 -0.000 -0.000  0.000  0.000
 -0.000  0.382 -0.000  0.000  0.000
 -0.000 -0.000  0.382  0.000  0.000
  0.000  0.000  0.000  0.139 -0.000
  0.000  0.000  0.000 -0.000  0.382
atomic mag. moment =   3.55878
N of occupied +U levels =    6.407332
 --- exit write_ns ---
 --- in v_hubbard ---
Hubbard energy    0.1773
 -------

     total cpu time spent up to now is       39.6 secs

     total energy              =    -381.96559601 Ry
     estimated scf accuracy    <       0.00000076 Ry

     total magnetization       =     4.00 Bohr mag/cell
     absolute magnetization    =     4.11 Bohr mag/cell

     iteration # 13     ecut=   800.00 Ry     beta= 0.30
     Davidson diagonalization with overlap
     ethr =  1.66E-09,  avg # of iterations =  3.6
 --- enter write_ns ---
 LDA+U parameters:
U( 1)     =  5.00000000
atom    1   Tr[ns(na)] (up, down, total) =   4.98304  1.42383  6.40687
   spin  1
    eigenvalues: 
  0.996  0.996  0.996  0.998  0.998
    eigenvectors:
  0.000  0.000  0.000  0.002  0.998
  0.110  0.006  0.883  0.000  0.000
  0.349  0.577  0.075  0.000  0.000
  0.000  0.000  0.000  0.998  0.002
  0.541  0.417  0.042  0.000  0.000
    occupations:
  0.998 -0.000 -0.000  0.000  0.000
 -0.000  0.996 -0.000  0.000  0.000
 -0.000 -0.000  0.996  0.000  0.000
  0.000  0.000  0.000  0.998 -0.000
  0.000  0.000  0.000 -0.000  0.996
   spin  2
    eigenvalues: 
  0.139  0.139  0.382  0.382  0.382
    eigenvectors:
  0.004  0.996  0.000  0.000  0.000
  0.000  0.000  0.119  0.003  0.878
  0.000  0.000  0.386  0.542  0.072
  0.996  0.004  0.000  0.000  0.000
  0.000  0.000  0.495  0.455  0.050
    occupations:
  0.139 -0.000 -0.000  0.000  0.000
 -0.000  0.382 -0.000  0.000  0.000
 -0.000 -0.000  0.382  0.000  0.000
  0.000  0.000  0.000  0.139 -0.000
  0.000  0.000  0.000 -0.000  0.382
atomic mag. moment =   3.55921
N of occupied +U levels =    6.406867
 --- exit write_ns ---
 --- in v_hubbard ---
Hubbard energy    0.1773
 -------

     total cpu time spent up to now is       42.6 secs

     total energy              =    -381.96559624 Ry
     estimated scf accuracy    <       0.00000074 Ry

     total magnetization       =     4.00 Bohr mag/cell
     absolute magnetization    =     4.11 Bohr mag/cell

     iteration # 14     ecut=   800.00 Ry     beta= 0.30
     Davidson diagonalization with overlap
     ethr =  1.60E-09,  avg # of iterations =  2.0
 --- enter write_ns ---
 LDA+U parameters:
U( 1)     =  5.00000000
atom    1   Tr[ns(na)] (up, down, total) =   4.98306  1.42410  6.40716
   spin  1
    eigenvalues: 
  0.996  0.996  0.996  0.998  0.998
    eigenvectors:
  0.000  0.000  0.000  0.006  0.994
  0.130  0.014  0.856  0.000  0.000
  0.372  0.519  0.108  0.000  0.000
  0.000  0.000  0.000  0.994  0.006
  0.497  0.467  0.036  0.000  0.000
    occupations:
  0.998 -0.000 -0.000  0.000  0.000
 -0.000  0.996 -0.000  0.000  0.000
 -0.000 -0.000  0.996  0.000  0.000
  0.000  0.000  0.000  0.998 -0.000
  0.000  0.000  0.000 -0.000  0.996
   spin  2
    eigenvalues: 
  0.139  0.139  0.382  0.382  0.382
    eigenvectors:
  0.001  0.999  0.000  0.000  0.000
  0.000  0.000  0.115  0.017  0.868
  0.000  0.000  0.385  0.509  0.106
  0.999  0.001  0.000  0.000  0.000
  0.000  0.000  0.500  0.474  0.026
    occupations:
  0.139 -0.000 -0.000  0.000  0.000
 -0.000  0.382 -0.000  0.000  0.000
 -0.000 -0.000  0.382  0.000  0.000
  0.000  0.000  0.000  0.139 -0.000
  0.000  0.000  0.000 -0.000  0.382
atomic mag. moment =   3.55896
N of occupied +U levels =    6.407158
 --- exit write_ns ---
 --- in v_hubbard ---
Hubbard energy    0.1773
 -------

     total cpu time spent up to now is       45.1 secs

     total energy              =    -381.96559639 Ry
     estimated scf accuracy    <       0.00000002 Ry

     total magnetization       =     4.00 Bohr mag/cell
     absolute magnetization    =     4.11 Bohr mag/cell

     iteration # 15     ecut=   800.00 Ry     beta= 0.30
     Davidson diagonalization with overlap
     ethr =  5.18E-11,  avg # of iterations =  3.2
 --- enter write_ns ---
 LDA+U parameters:
U( 1)     =  5.00000000
atom    1   Tr[ns(na)] (up, down, total) =   4.98306  1.42406  6.40711
   spin  1
    eigenvalues: 
  0.996  0.996  0.996  0.998  0.998
    eigenvectors:
  0.000  0.000  0.000  0.000  1.000
  0.118  0.000  0.882  0.000  0.000
  0.343  0.607  0.050  0.000  0.000
  0.000  0.000  0.000  1.000  0.000
  0.539  0.393  0.068  0.000  0.000
    occupations:
  0.998 -0.000 -0.000  0.000  0.000
 -0.000  0.996 -0.000  0.000  0.000
 -0.000 -0.000  0.996  0.000  0.000
  0.000  0.000  0.000  0.998 -0.000
  0.000  0.000  0.000 -0.000  0.996
   spin  2
    eigenvalues: 
  0.139  0.139  0.382  0.382  0.382
    eigenvectors:
  0.000  1.000  0.000  0.000  0.000
  0.000  0.000  0.105  0.018  0.877
  0.000  0.000  0.362  0.540  0.098
  1.000  0.000  0.000  0.000  0.000
  0.000  0.000  0.533  0.442  0.025
    occupations:
  0.139 -0.000 -0.000  0.000  0.000
 -0.000  0.382 -0.000  0.000  0.000
 -0.000 -0.000  0.382  0.000  0.000
  0.000  0.000  0.000  0.139 -0.000
  0.000  0.000  0.000 -0.000  0.382
atomic mag. moment =   3.55900
N of occupied +U levels =    6.407114
 --- exit write_ns ---
 --- in v_hubbard ---
Hubbard energy    0.1773
 -------

     total cpu time spent up to now is       47.8 secs

     total energy              =    -381.96559641 Ry
     estimated scf accuracy    <          5.3E-09 Ry

     total magnetization       =     4.00 Bohr mag/cell
     absolute magnetization    =     4.11 Bohr mag/cell

     iteration # 16     ecut=   800.00 Ry     beta= 0.30
     Davidson diagonalization with overlap
     ethr =  1.15E-11,  avg # of iterations =  3.2
 --- enter write_ns ---
 LDA+U parameters:
U( 1)     =  5.00000000
atom    1   Tr[ns(na)] (up, down, total) =   4.98306  1.42402  6.40708
   spin  1
    eigenvalues: 
  0.996  0.996  0.996  0.998  0.998
    eigenvectors:
  0.000  0.000  0.000  0.003  0.997
  0.127  0.004  0.869  0.000  0.000
  0.413  0.500  0.086  0.000  0.000
  0.000  0.000  0.000  0.997  0.003
  0.460  0.496  0.045  0.000  0.000
    occupations:
  0.998 -0.000 -0.000  0.000  0.000
 -0.000  0.996 -0.000  0.000  0.000
 -0.000 -0.000  0.996  0.000  0.000
  0.000  0.000  0.000  0.998 -0.000
  0.000  0.000  0.000 -0.000  0.996
   spin  2
    eigenvalues: 
  0.139  0.139  0.382  0.382  0.382
    eigenvectors:
  0.001  0.999  0.000  0.000  0.000
  0.000  0.000  0.111  0.008  0.881
  0.000  0.000  0.401  0.514  0.085
  0.999  0.001  0.000  0.000  0.000
  0.000  0.000  0.488  0.479  0.034
    occupations:
  0.139 -0.000 -0.000  0.000  0.000
 -0.000  0.382 -0.000  0.000  0.000
 -0.000 -0.000  0.382  0.000  0.000
  0.000  0.000  0.000  0.139 -0.000
  0.000  0.000  0.000 -0.000  0.382
atomic mag. moment =   3.55903
N of occupied +U levels =    6.407077
 --- exit write_ns ---
 --- in v_hubbard ---
Hubbard energy    0.1773
 -------

     total cpu time spent up to now is       50.8 secs

     total energy              =    -381.96559641 Ry
     estimated scf accuracy    <       0.00000001 Ry

     total magnetization       =     4.00 Bohr mag/cell
     absolute magnetization    =     4.11 Bohr mag/cell

     iteration # 17     ecut=   800.00 Ry     beta= 0.30
     Davidson diagonalization with overlap
     ethr =  1.15E-11,  avg # of iterations =  2.2
 --- enter write_ns ---
 LDA+U parameters:
U( 1)     =  5.00000000
atom    1   Tr[ns(na)] (up, down, total) =   4.98306  1.42406  6.40712
   spin  1
    eigenvalues: 
  0.996  0.996  0.996  0.998  0.998
    eigenvectors:
  0.000  0.000  0.000  0.007  0.993
  0.121  0.030  0.849  0.000  0.000
  0.357  0.514  0.129  0.000  0.000
  0.000  0.000  0.000  0.993  0.007
  0.522  0.457  0.022  0.000  0.000
    occupations:
  0.998 -0.000 -0.000  0.000  0.000
 -0.000  0.996 -0.000  0.000  0.000
 -0.000 -0.000  0.996  0.000  0.000
  0.000  0.000  0.000  0.998 -0.000
  0.000  0.000  0.000 -0.000  0.996
   spin  2
    eigenvalues: 
  0.139  0.139  0.382  0.382  0.382
    eigenvectors:
  0.002  0.998  0.000  0.000  0.000
  0.000  0.000  0.106  0.022  0.873
  0.000  0.000  0.360  0.535  0.105
  0.998  0.002  0.000  0.000  0.000
  0.000  0.000  0.534  0.444  0.022
    occupations:
  0.139 -0.000 -0.000  0.000  0.000
 -0.000  0.382 -0.000  0.000  0.000
 -0.000 -0.000  0.382  0.000  0.000
  0.000  0.000  0.000  0.139 -0.000
  0.000  0.000  0.000 -0.000  0.382
atomic mag. moment =   3.55900
N of occupied +U levels =    6.407121
 --- exit write_ns ---
 --- in v_hubbard ---
Hubbard energy    0.1773
 -------

     total cpu time spent up to now is       53.5 secs

     total energy              =    -381.96559641 Ry
     estimated scf accuracy    <          1.6E-10 Ry

     total magnetization       =     4.00 Bohr mag/cell
     absolute magnetization    =     4.11 Bohr mag/cell

     iteration # 18     ecut=   800.00 Ry     beta= 0.30
     Davidson diagonalization with overlap
     ethr =  3.40E-13,  avg # of iterations =  3.2
 --- enter write_ns ---
 LDA+U parameters:
U( 1)     =  5.00000000
atom    1   Tr[ns(na)] (up, down, total) =   4.98306  1.42406  6.40712
   spin  1
    eigenvalues: 
  0.996  0.996  0.996  0.998  0.998
    eigenvectors:
  0.000  0.000  0.000  0.016  0.984
  0.122  0.017  0.861  0.000  0.000
  0.392  0.496  0.112  0.000  0.000
  0.000  0.000  0.000  0.984  0.016
  0.486  0.487  0.027  0.000  0.000
    occupations:
  0.998 -0.000 -0.000  0.000  0.000
 -0.000  0.996 -0.000  0.000  0.000
 -0.000 -0.000  0.996  0.000  0.000
  0.000  0.000  0.000  0.998 -0.000
  0.000  0.000  0.000 -0.000  0.996
   spin  2
    eigenvalues: 
  0.139  0.139  0.382  0.382  0.382
    eigenvectors:
  0.008  0.992  0.000  0.000  0.000
  0.000  0.000  0.139  0.015  0.846
  0.000  0.000  0.388  0.493  0.119
  0.992  0.008  0.000  0.000  0.000
  0.000  0.000  0.473  0.492  0.034
    occupations:
  0.139 -0.000 -0.000  0.000  0.000
 -0.000  0.382 -0.000  0.000  0.000
 -0.000 -0.000  0.382  0.000  0.000
  0.000  0.000  0.000  0.139 -0.000
  0.000  0.000  0.000 -0.000  0.382
atomic mag. moment =   3.55900
N of occupied +U levels =    6.407118
 --- exit write_ns ---
 --- in v_hubbard ---
Hubbard energy    0.1773
 -------
 
     Magnetic moment per site:
     atom:    1    charge:   13.4764    magn:    3.5254    constr:    0.0000
     atom:    2    charge:    0.2540    magn:   -0.0012    constr:    0.0000
     atom:    3    charge:    0.2540    magn:   -0.0012    constr:    0.0000
     atom:    4    charge:    0.2540    magn:   -0.0012    constr:    0.0000
     atom:    5    charge:    5.8455    magn:   -0.0002    constr:    0.0000
     atom:    6    charge:    5.8376    magn:    0.0960    constr:    0.0000
     atom:    7    charge:    5.8376    magn:    0.0960    constr:    0.0000
     atom:    8    charge:    5.8376    magn:    0.0960    constr:    0.0000

     total cpu time spent up to now is       56.2 secs

     End of self-consistent calculation

 ------ SPIN UP ------------


          k = 0.0000 0.0000 0.0000 (192431 PWs)   bands (ev):

   -79.2749 -44.8715 -44.8715 -44.8715 -10.0956  -8.9146  -8.9146  -8.4369
     3.2170   3.2170   3.2170   4.0679   4.0679   4.0679   4.6374   4.6374
     5.9321   5.9321   5.9321   5.9891   5.9891   5.9891   7.3232   7.3232
     7.3232  12.0022  16.8222  17.7488  17.7488  17.8056  17.8056  17.8056

     occupation numbers 
     1.0000   1.0000   1.0000   1.0000   1.0000   1.0000   1.0000   1.0000
     1.0000   1.0000   1.0000   1.0000   1.0000   1.0000   1.0000   1.0000
     1.0000   1.0000   1.0000   1.0000   1.0000   1.0000   1.0000   1.0000
     1.0000   0.0000   0.0000   0.0000   0.0000   0.0000   0.0000   0.0000

          k = 0.0000 0.0000-0.5000 (192616 PWs)   bands (ev):

   -79.2749 -44.8722 -44.8714 -44.8714  -9.4999  -9.2729  -8.8685  -8.4212
     2.0710   3.0399   3.0399   4.0839   4.3015   4.3015   4.6407   4.6800
     5.2615   5.4217   5.4217   5.5361   6.4996   6.4996   7.0455   7.0455
     7.4974  15.4948  15.5853  18.8120  19.0716  19.0716  19.4578  19.9077

     occupation numbers 
     1.0000   1.0000   1.0000   1.0000   1.0000   1.0000   1.0000   1.0000
     1.0000   1.0000   1.0000   1.0000   1.0000   1.0000   1.0000   1.0000
     1.0000   1.0000   1.0000   1.0000   1.0000   1.0000   1.0000   1.0000
     1.0000   0.0000   0.0000   0.0000   0.0000   0.0000   0.0000   0.0000

          k = 0.0000-0.5000-0.5000 (192516 PWs)   bands (ev):

   -79.2749 -44.8722 -44.8722 -44.8714  -9.1436  -8.9145  -8.9145  -8.7188
     2.0449   2.1639   2.3067   3.2549   3.2549   3.9031   3.9031   5.2213
     5.4605   5.9476   6.1870   6.4880   6.4880   6.6277   6.7166   6.7166
     9.6186  16.9113  16.9233  16.9233  17.1290  19.1191  19.4051  20.0737

     occupation numbers 
     1.0000   1.0000   1.0000   1.0000   1.0000   1.0000   1.0000   1.0000
     1.0000   1.0000   1.0000   1.0000   1.0000   1.0000   1.0000   1.0000
     1.0000   1.0000   1.0000   1.0000   1.0000   1.0000   1.0000   1.0000
     1.0000   0.0000   0.0000   0.0000   0.0000   0.0000   0.0000   0.0000

          k =-0.5000-0.5000-0.5000 (192672 PWs)   bands (ev):

   -79.2749 -44.8721 -44.8721 -44.8721  -8.8509  -8.8509  -8.8509  -8.6491
     1.7870   1.7870   1.7870   2.0445   2.0445   2.3204   5.1410   5.1410
     5.1410   6.6235   6.6235   6.6235   7.2362   7.2362   7.2362   9.6143
     9.6143  15.3521  15.3521  15.3521  15.4939  19.5959  20.3957  20.3957

     occupation numbers 
     1.0000   1.0000   1.0000   1.0000   1.0000   1.0000   1.0000   1.0000
     1.0000   1.0000   1.0000   1.0000   1.0000   1.0000   1.0000   1.0000
     1.0000   1.0000   1.0000   1.0000   1.0000   1.0000   1.0000   1.0000
     1.0000   0.0000   0.0000   0.0000   0.0000   0.0000   0.0000   0.0000

 ------ SPIN DOWN ----------


          k = 0.0000 0.0000 0.0000 (192431 PWs)   bands (ev):

   -74.5905 -40.2591 -40.2591 -40.2591  -9.9699  -8.4248  -8.4248  -8.3958
     3.3285   3.3285   3.3285   6.0707   6.0707   6.0707   6.1208   6.1208
     6.1208   7.4501   7.4501   7.4501  10.4677  10.4677  10.4677  12.2220
    13.5279  13.5279  17.7547  17.7547  17.7635  18.2074  18.2074  18.2074

     occupation numbers 
     1.0000   1.0000   1.0000   1.0000   1.0000   1.0000   1.0000   1.0000
     1.0000   1.0000   1.0000   1.0000   1.0000   1.0000   1.0000   1.0000
     1.0000   1.0000   1.0000   1.0000   1.0000   1.0000   1.0000   0.0000
     0.0000   0.0000   0.0000   0.0000   0.0000   0.0000   0.0000   0.0000

          k = 0.0000 0.0000-0.5000 (192616 PWs)   bands (ev):

   -74.5905 -40.2604 -40.2590 -40.2590  -9.2417  -9.1830  -8.3784  -8.3456
     4.3376   4.3376   4.4830   4.4830   4.5296   4.7962   5.5312   5.6639
     6.6309   6.6309   6.6867   6.6867  10.5455  11.3692  11.3692  13.5407
    13.7911  15.6523  16.2688  18.7623  19.1876  19.1876  19.9299  20.1147

     occupation numbers 
     1.0000   1.0000   1.0000   1.0000   1.0000   1.0000   1.0000   1.0000
     1.0000   1.0000   1.0000   1.0000   1.0000   1.0000   1.0000   1.0000
     1.0000   1.0000   1.0000   1.0000   1.0000   0.2012   0.2012   0.0000
     0.0000   0.0000   0.0000   0.0000   0.0000   0.0000   0.0000   0.0000

          k = 0.0000-0.5000-0.5000 (192516 PWs)   bands (ev):

   -74.5904 -40.2603 -40.2603 -40.2590  -8.7785  -8.7481  -8.7481  -8.7160
     3.6767   3.7076   3.9542   3.9542   5.1932   5.1932   5.4556   5.4612
     5.9401   6.7850   6.7956   6.7956  11.3822  11.3822  11.7287  13.6514
    15.3058  17.0792  17.0792  17.1953  17.2844  19.3097  19.3594  20.3027

     occupation numbers 
     1.0000   1.0000   1.0000   1.0000   1.0000   1.0000   1.0000   1.0000
     1.0000   1.0000   1.0000   1.0000   1.0000   1.0000   1.0000   1.0000
     1.0000   1.0000   1.0000   1.0000   0.1321   0.1321   0.0000   0.0000
     0.0000   0.0000   0.0000   0.0000   0.0000   0.0000   0.0000   0.0000

          k =-0.5000-0.5000-0.5000 (192672 PWs)   bands (ev):

   -74.5904 -40.2603 -40.2603 -40.2603  -8.6830  -8.6830  -8.6830  -8.6500
     2.6705   2.6907   2.6907   2.6907   5.9362   5.9362   6.6804   6.6804
     6.6804   6.7809   6.7809   6.7809  11.7507  11.7507  11.7507  15.3053
    15.3053  15.4502  15.4859  15.4859  15.4859  20.1275  20.5072  20.5072

     occupation numbers 
     1.0000   1.0000   1.0000   1.0000   1.0000   1.0000   1.0000   1.0000
     1.0000   1.0000   1.0000   1.0000   1.0000   1.0000   1.0000   1.0000
     1.0000   1.0000   1.0000   1.0000   0.0000   0.0000   0.0000   0.0000
     0.0000   0.0000   0.0000   0.0000   0.0000   0.0000   0.0000   0.0000

     the spin up/dw Fermi energies are    11.1946   11.3335 ev

!    total energy              =    -381.96559641 Ry
     estimated scf accuracy    <          1.8E-11 Ry
     smearing contrib. (-TS)   =      -0.00127179 Ry
     internal energy E=F+TS    =    -381.96432461 Ry

     The total energy is F=E-TS. E is the sum of the following terms:
     one-electron contribution =    -239.84947446 Ry
     hartree contribution      =     146.75419965 Ry
     xc contribution           =     -58.55833724 Ry
     ewald contribution        =    -230.48798836 Ry
     Hubbard energy            =       0.17727579 Ry

     total magnetization       =     4.00 Bohr mag/cell
     absolute magnetization    =     4.11 Bohr mag/cell

     convergence has been achieved in  18 iterations

     Forces acting on atoms (cartesian axes, Ry/au):

     atom    1 type  1   force =     0.00000000    0.00000000    0.00000000
     atom    2 type  2   force =     0.00000000    0.00000000    0.00000000
     atom    3 type  2   force =     0.00000000    0.00000000   -0.00000000
     atom    4 type  2   force =     0.00000000    0.00000000    0.00000000
     atom    5 type  3   force =     0.00000000    0.00000000    0.00000000
     atom    6 type  3   force =     0.00000000    0.00000000   -0.00000000
     atom    7 type  3   force =     0.00000000    0.00000000    0.00000000
     atom    8 type  3   force =     0.00000000    0.00000000    0.00000000
     The non-local contrib.  to forces
     atom    1 type  1   force =     0.00000000    0.00000000    0.00000000
     atom    2 type  2   force =     0.00000000    0.00000000   -0.00000000
     atom    3 type  2   force =     0.00000000    0.00000000    0.00000000
     atom    4 type  2   force =     0.00000000   -0.00000000    0.00000000
     atom    5 type  3   force =     0.00000000   -0.00000000    0.00000000
     atom    6 type  3   force =     0.00000000   -0.00000000    0.00000000
     atom    7 type  3   force =     0.00000000    0.00000000   -0.00000000
     atom    8 type  3   force =     0.00000000    0.00000000    0.00000000
     The ionic contribution  to forces
     atom    1 type  1   force =    -0.00000000   -0.00000000   -0.00000000
     atom    2 type  2   force =    -0.00000000    0.00000000    0.00000000
     atom    3 type  2   force =     0.00000000   -0.00000000    0.00000000
     atom    4 type  2   force =     0.00000000    0.00000000   -0.00000000
     atom    5 type  3   force =     0.00000000    0.00000000    0.00000000
     atom    6 type  3   force =     0.00000000   -0.00000000   -0.00000000
     atom    7 type  3   force =    -0.00000000    0.00000000   -0.00000000
     atom    8 type  3   force =    -0.00000000   -0.00000000    0.00000000
     The local contribution  to forces
     atom    1 type  1   force =     0.00000000    0.00000000    0.00000000
     atom    2 type  2   force =    -0.00000000    0.00000000    0.00000000
     atom    3 type  2   force =     0.00000000   -0.00000000    0.00000000
     atom    4 type  2   force =     0.00000000    0.00000000   -0.00000000
     atom    5 type  3   force =     0.00000000    0.00000000    0.00000000
     atom    6 type  3   force =     0.00000000    0.00000000    0.00000000
     atom    7 type  3   force =     0.00000000    0.00000000    0.00000000
     atom    8 type  3   force =     0.00000000    0.00000000    0.00000000
     The core correction contribution to forces
     atom    1 type  1   force =     0.00000000    0.00000000    0.00000000
     atom    2 type  2   force =     0.00000000    0.00000000    0.00000000
     atom    3 type  2   force =     0.00000000    0.00000000    0.00000000
     atom    4 type  2   force =     0.00000000    0.00000000    0.00000000
     atom    5 type  3   force =     0.00000000    0.00000000    0.00000000
     atom    6 type  3   force =     0.00000000    0.00000000    0.00000000
     atom    7 type  3   force =     0.00000000    0.00000000    0.00000000
     atom    8 type  3   force =     0.00000000    0.00000000    0.00000000
     The Hubbard contrib.    to forces
     atom    1 type  1   force =     0.00000000    0.00000000    0.00000000
     atom    2 type  2   force =     0.00000000    0.00000000    0.00000000
     atom    3 type  2   force =     0.00000000    0.00000000    0.00000000
     atom    4 type  2   force =     0.00000000    0.00000000    0.00000000
     atom    5 type  3   force =     0.00000000    0.00000000    0.00000000
     atom    6 type  3   force =     0.00000000    0.00000000    0.00000000
     atom    7 type  3   force =     0.00000000    0.00000000    0.00000000
     atom    8 type  3   force =     0.00000000    0.00000000    0.00000000
     The SCF correction term to forces
     atom    1 type  1   force =     0.00000000    0.00000000    0.00000000
     atom    2 type  2   force =     0.00000000    0.00000000    0.00000000
     atom    3 type  2   force =    -0.00000000    0.00000000    0.00000000
     atom    4 type  2   force =    -0.00000000   -0.00000000   -0.00000000
     atom    5 type  3   force =    -0.00000000    0.00000000    0.00000000
     atom    6 type  3   force =     0.00000000    0.00000000   -0.00000000
     atom    7 type  3   force =    -0.00000000    0.00000000    0.00000000
     atom    8 type  3   force =     0.00000000    0.00000000    0.00000000

     Total force =     0.000000     Total SCF correction =     0.000000


     Computing stress (Cartesian axis) and pressure

          total   stress  (Ry/bohr**3)                   (kbar)     P=      148.11
   0.00100683   0.00000000   0.00000000          148.11        0.00        0.00
   0.00000000   0.00100683   0.00000000            0.00      148.11        0.00
   0.00000000   0.00000000   0.00100683            0.00        0.00      148.11

     kinetic stress (kbar)  48383.01      0.00      0.00
                                0.00  48383.01      0.00
                                0.00      0.00  48383.01

     local   stress (kbar) -16723.06      0.00      0.00
                                0.00 -16723.06      0.00
                                0.00      0.00 -16723.06

     nonloc. stress (kbar) -17956.97      0.00      0.00
                                0.00 -17956.97      0.00
                                0.00      0.00 -17956.97

     hartree stress (kbar)  14280.77     -0.00     -0.00
                               -0.00  14280.77     -0.00
                               -0.00     -0.00  14280.77

     exc-cor stress (kbar)  -5413.19     -0.00     -0.00
                               -0.00  -5413.19      0.00
                               -0.00      0.00  -5413.19

     corecor stress (kbar)      0.00      0.00      0.00
                                0.00      0.00      0.00
                                0.00      0.00      0.00

     ewald   stress (kbar) -22428.97      0.00     -0.00
                                0.00 -22428.97      0.00
                               -0.00      0.00 -22428.97

     hubbard stress (kbar)      6.53      0.00      0.00
                                0.00      6.53      0.00
                                0.00      0.00      6.53

     DFT-D   stress (kbar)      0.00      0.00      0.00
                                0.00      0.00      0.00
                                0.00      0.00      0.00

     XDM     stress (kbar)      0.00      0.00      0.00
                                0.00      0.00      0.00
                                0.00      0.00      0.00

     dft-nl  stress (kbar)      0.00      0.00      0.00
                                0.00      0.00      0.00
                                0.00      0.00      0.00

     TS-vdW  stress (kbar)      0.00      0.00      0.00
                                0.00      0.00      0.00
                                0.00      0.00      0.00



     Writing output data file pwscf_output/pwscf.save/
 
     init_run     :      2.15s CPU      2.43s WALL (       1 calls)
     electrons    :     51.49s CPU     53.66s WALL (       1 calls)
     forces       :      0.26s CPU      0.26s WALL (       1 calls)
     stress       :      0.98s CPU      1.00s WALL (       1 calls)

     Called by init_run:
     wfcinit      :      1.35s CPU      1.49s WALL (       1 calls)
     wfcinit:atom :      0.02s CPU      0.02s WALL (       8 calls)
     wfcinit:wfcr :      1.20s CPU      1.32s WALL (       8 calls)
     potinit      :      0.16s CPU      0.23s WALL (       1 calls)
     hinit0       :      0.11s CPU      0.16s WALL (       1 calls)

     Called by electrons:
     c_bands      :     41.93s CPU     42.27s WALL (      18 calls)
     sum_band     :      6.82s CPU      6.92s WALL (      18 calls)
     v_of_rho     :      1.94s CPU      2.08s WALL (      19 calls)
     v_h          :      0.08s CPU      0.08s WALL (      19 calls)
     v_xc         :      1.86s CPU      2.00s WALL (      19 calls)
     mix_rho      :      0.75s CPU      0.79s WALL (      18 calls)

     Called by c_bands:
     init_us_2    :      0.38s CPU      0.38s WALL (     336 calls)
     cegterg      :     41.07s CPU     41.38s WALL (     144 calls)

     Called by sum_band:
     sum_band:wei :      0.00s CPU      0.00s WALL (      18 calls)
     sum_band:loo :      6.22s CPU      6.28s WALL (      18 calls)
     sum_band:buf :      0.20s CPU      0.21s WALL (     144 calls)
     sum_band:ini :      0.16s CPU      0.16s WALL (     144 calls)

     Called by *egterg:
     cdiaghg      :      2.86s CPU      2.95s WALL (     720 calls)
     cegterg:over :      3.21s CPU      3.22s WALL (     576 calls)
     cegterg:upda :      2.60s CPU      2.61s WALL (     576 calls)
     cegterg:last :      2.41s CPU      2.42s WALL (     315 calls)
     cdiaghg:chol :      0.20s CPU      0.24s WALL (     720 calls)
     cdiaghg:inve :      0.04s CPU      0.05s WALL (     720 calls)
     cdiaghg:para :      0.19s CPU      0.20s WALL (    1440 calls)
     h_psi        :     30.01s CPU     30.31s WALL (     728 calls)
     g_psi        :      0.14s CPU      0.14s WALL (     576 calls)

     Called by h_psi:
     h_psi:calbec :      0.85s CPU      0.86s WALL (     728 calls)
     vloc_psi     :     27.08s CPU     27.34s WALL (     728 calls)
     add_vuspsi   :      0.99s CPU      1.01s WALL (     728 calls)
     vhpsi        :      0.66s CPU      0.66s WALL (     728 calls)

     General routines
     calbec       :      1.44s CPU      1.46s WALL (    1752 calls)
     fft          :      0.86s CPU      1.04s WALL (     370 calls)
     ffts         :      0.07s CPU      0.08s WALL (      36 calls)
     fftw         :     27.67s CPU     27.93s WALL (   29728 calls)
     davcio       :      0.00s CPU      0.10s WALL (       8 calls)
 
     Parallel routines
     fft_scatt_xy :      4.06s CPU      4.10s WALL (   30134 calls)
     fft_scatt_yz :     14.14s CPU     14.41s WALL (   30134 calls)

     Hubbard U routines
     new_ns       :      0.25s CPU      0.26s WALL (      18 calls)
     new_ns       :      0.25s CPU      0.26s WALL (      18 calls)
     vhpsi        :      0.66s CPU      0.66s WALL (     728 calls)
     force_hub    :      0.10s CPU      0.10s WALL (       1 calls)
     stres_hub    :      0.34s CPU      0.34s WALL (       1 calls)
 
     PWSCF        :     55.52s CPU   1m22.27s WALL

 
   This run was terminated on:  11:24:17  22Nov2021            

=------------------------------------------------------------------------------=
   JOB DONE.
=------------------------------------------------------------------------------=
