
     Program PWSCF v.6.7MaX starts on 22Nov2021 at 11:25:12 

     This program is part of the open-source Quantum ESPRESSO suite
     for quantum simulation of materials; please cite
         "P. Giannozzi et al., J. Phys.:Condens. Matter 21 395502 (2009);
         "P. Giannozzi et al., J. Phys.:Condens. Matter 29 465901 (2017);
          URL http://www.quantum-espresso.org", 
     in publications or presentations arising from this work. More details at
     http://www.quantum-espresso.org/quote

     Parallel version (MPI), running on    48 processors

     MPI processes distributed on     1 nodes
     R & G space division:  proc/nbgrp/npool/nimage =      48
     Reading input from scf.in

     Current dimensions of program PWSCF are:
     Max number of different atomic species (ntypx) = 10
     Max number of k-points (npk) =  40000
     Max angular momentum in pseudopotentials (lmaxx) =  3
     Message from routine scan_end:
     No INFO block end statement, possibly corrupted file
     Message from routine scan_end:
     No INFO block end statement, possibly corrupted file
     Message from routine scan_end:
     No INFO block end statement, possibly corrupted file

     IMPORTANT: XC functional enforced from input :
     Exchange-correlation= PBE
                           (   1   4   3   4   0   0   0)
     Any further DFT definition will be discarded
     Please, verify this is what you really want


     Subspace diagonalization in iterative solution of the eigenvalue problem:
     one sub-group per band group will be used
     scalapack distributed-memory algorithm (size of sub-group:  6*  6 procs)

 
     Parallelization info
     --------------------
     sticks:   dense  smooth     PW     G-vecs:    dense   smooth      PW
     Min         336     336     87                32092    32092    4297
     Max         337     337     88                32097    32097    4304
     Sum       16141   16141   4221              1540499  1540499  206437
 


     bravais-lattice index     =            1
     lattice parameter (alat)  =       7.9576  a.u.
     unit-cell volume          =     503.9013 (a.u.)^3
     number of atoms/cell      =            8
     number of atomic types    =            3
     number of electrons       =        46.00 (up:  25.00, down:  21.00)
     number of Kohn-Sham states=           32
     kinetic-energy cutoff     =     800.0000  Ry
     charge density cutoff     =    3200.0000  Ry
     scf convergence threshold =      1.0E-10
     mixing beta               =       0.3000
     number of iterations used =            8  plain     mixing
     Exchange-correlation= PBE
                           (   1   4   3   4   0   0   0)

     celldm(1)=   7.957595  celldm(2)=   0.000000  celldm(3)=   0.000000
     celldm(4)=   0.000000  celldm(5)=   0.000000  celldm(6)=   0.000000

     crystal axes: (cart. coord. in units of alat)
               a(1) = (   1.000000   0.000000   0.000000 )  
               a(2) = (   0.000000   1.000000   0.000000 )  
               a(3) = (   0.000000   0.000000   1.000000 )  

     reciprocal axes: (cart. coord. in units 2 pi/alat)
               b(1) = (  1.000000  0.000000  0.000000 )  
               b(2) = (  0.000000  1.000000  0.000000 )  
               b(3) = (  0.000000  0.000000  1.000000 )  


     PseudoPot. # 1 for Fe read from file:
     /ascldap/users/jptowns/ferropericlase_spintransition/pseudos/Fe.ccECP.upf
     MD5 check sum: 375ee7e2ce333dc2f1485c86089d969e
     Pseudo is Norm-conserving, Zval = 16.0
     Generated by new atomic code, or converted to UPF format
     Using radial grid of 1160 points,  2 beta functions with: 
                l(1) =   1
                l(2) =   2

     PseudoPot. # 2 for Mg read from file:
     /ascldap/users/jptowns/ferropericlase_spintransition/pseudos/Mg.ccECP.upf
     MD5 check sum: 94218cb30fa6b3f6810c07405bb1118c
     Pseudo is Norm-conserving, Zval =  2.0
     Generated by new atomic code, or converted to UPF format
     Using radial grid of 1140 points,  2 beta functions with: 
                l(1) =   0
                l(2) =   2

     PseudoPot. # 3 for O  read from file:
     /ascldap/users/jptowns/ferropericlase_spintransition/pseudos/O.ccECP.upf
     MD5 check sum: f8511452b848d8673c004e477b4fc277
     Pseudo is Norm-conserving, Zval =  6.0
     Generated by new atomic code, or converted to UPF format
     Using radial grid of 1130 points,  1 beta functions with: 
                l(1) =   0

     atomic species   valence    mass     pseudopotential
        Fe            16.00    55.84500     Fe( 1.00)
        Mg             2.00    24.30500     Mg( 1.00)
        O              6.00    15.99900     O ( 1.00)

     Starting magnetic structure 
     atomic species   magnetization
        Fe           0.000
        Mg           0.000
        O            0.000


     Simplified LDA+U calculation (l_max = 2) with parameters (eV):
     atomic species    L          U    alpha       J0     beta
        Fe             2     5.0000   0.0000   0.0000   0.0000



     48 Sym. Ops., with inversion, found


                                    s                        frac. trans.

      isym =  1     identity                                     

 cryst.   s( 1) = (     1          0          0      )
                  (     0          1          0      )
                  (     0          0          1      )

 cart.    s( 1) = (  1.0000000  0.0000000  0.0000000 )
                  (  0.0000000  1.0000000  0.0000000 )
                  (  0.0000000  0.0000000  1.0000000 )


      isym =  2     180 deg rotation - cart. axis [0,0,1]        

 cryst.   s( 2) = (    -1          0          0      )
                  (     0         -1          0      )
                  (     0          0          1      )

 cart.    s( 2) = ( -1.0000000  0.0000000  0.0000000 )
                  (  0.0000000 -1.0000000  0.0000000 )
                  (  0.0000000  0.0000000  1.0000000 )


      isym =  3     180 deg rotation - cart. axis [0,1,0]        

 cryst.   s( 3) = (    -1          0          0      )
                  (     0          1          0      )
                  (     0          0         -1      )

 cart.    s( 3) = ( -1.0000000  0.0000000  0.0000000 )
                  (  0.0000000  1.0000000  0.0000000 )
                  (  0.0000000  0.0000000 -1.0000000 )


      isym =  4     180 deg rotation - cart. axis [1,0,0]        

 cryst.   s( 4) = (     1          0          0      )
                  (     0         -1          0      )
                  (     0          0         -1      )

 cart.    s( 4) = (  1.0000000  0.0000000  0.0000000 )
                  (  0.0000000 -1.0000000  0.0000000 )
                  (  0.0000000  0.0000000 -1.0000000 )


      isym =  5     180 deg rotation - cart. axis [1,1,0]        

 cryst.   s( 5) = (     0          1          0      )
                  (     1          0          0      )
                  (     0          0         -1      )

 cart.    s( 5) = (  0.0000000  1.0000000  0.0000000 )
                  (  1.0000000  0.0000000  0.0000000 )
                  (  0.0000000  0.0000000 -1.0000000 )


      isym =  6     180 deg rotation - cart. axis [1,-1,0]       

 cryst.   s( 6) = (     0         -1          0      )
                  (    -1          0          0      )
                  (     0          0         -1      )

 cart.    s( 6) = (  0.0000000 -1.0000000  0.0000000 )
                  ( -1.0000000  0.0000000  0.0000000 )
                  (  0.0000000  0.0000000 -1.0000000 )


      isym =  7      90 deg rotation - cart. axis [0,0,-1]       

 cryst.   s( 7) = (     0         -1          0      )
                  (     1          0          0      )
                  (     0          0          1      )

 cart.    s( 7) = (  0.0000000  1.0000000  0.0000000 )
                  ( -1.0000000  0.0000000  0.0000000 )
                  (  0.0000000  0.0000000  1.0000000 )


      isym =  8      90 deg rotation - cart. axis [0,0,1]        

 cryst.   s( 8) = (     0          1          0      )
                  (    -1          0          0      )
                  (     0          0          1      )

 cart.    s( 8) = (  0.0000000 -1.0000000  0.0000000 )
                  (  1.0000000  0.0000000  0.0000000 )
                  (  0.0000000  0.0000000  1.0000000 )


      isym =  9     180 deg rotation - cart. axis [1,0,1]        

 cryst.   s( 9) = (     0          0          1      )
                  (     0         -1          0      )
                  (     1          0          0      )

 cart.    s( 9) = (  0.0000000  0.0000000  1.0000000 )
                  (  0.0000000 -1.0000000  0.0000000 )
                  (  1.0000000  0.0000000  0.0000000 )


      isym = 10     180 deg rotation - cart. axis [-1,0,1]       

 cryst.   s(10) = (     0          0         -1      )
                  (     0         -1          0      )
                  (    -1          0          0      )

 cart.    s(10) = (  0.0000000  0.0000000 -1.0000000 )
                  (  0.0000000 -1.0000000  0.0000000 )
                  ( -1.0000000  0.0000000  0.0000000 )


      isym = 11      90 deg rotation - cart. axis [0,1,0]        

 cryst.   s(11) = (     0          0         -1      )
                  (     0          1          0      )
                  (     1          0          0      )

 cart.    s(11) = (  0.0000000  0.0000000  1.0000000 )
                  (  0.0000000  1.0000000  0.0000000 )
                  ( -1.0000000  0.0000000  0.0000000 )


      isym = 12      90 deg rotation - cart. axis [0,-1,0]       

 cryst.   s(12) = (     0          0          1      )
                  (     0          1          0      )
                  (    -1          0          0      )

 cart.    s(12) = (  0.0000000  0.0000000 -1.0000000 )
                  (  0.0000000  1.0000000  0.0000000 )
                  (  1.0000000  0.0000000  0.0000000 )


      isym = 13     180 deg rotation - cart. axis [0,1,1]        

 cryst.   s(13) = (    -1          0          0      )
                  (     0          0          1      )
                  (     0          1          0      )

 cart.    s(13) = ( -1.0000000  0.0000000  0.0000000 )
                  (  0.0000000  0.0000000  1.0000000 )
                  (  0.0000000  1.0000000  0.0000000 )


      isym = 14     180 deg rotation - cart. axis [0,1,-1]       

 cryst.   s(14) = (    -1          0          0      )
                  (     0          0         -1      )
                  (     0         -1          0      )

 cart.    s(14) = ( -1.0000000  0.0000000  0.0000000 )
                  (  0.0000000  0.0000000 -1.0000000 )
                  (  0.0000000 -1.0000000  0.0000000 )


      isym = 15      90 deg rotation - cart. axis [-1,0,0]       

 cryst.   s(15) = (     1          0          0      )
                  (     0          0         -1      )
                  (     0          1          0      )

 cart.    s(15) = (  1.0000000  0.0000000  0.0000000 )
                  (  0.0000000  0.0000000  1.0000000 )
                  (  0.0000000 -1.0000000  0.0000000 )


      isym = 16      90 deg rotation - cart. axis [1,0,0]        

 cryst.   s(16) = (     1          0          0      )
                  (     0          0          1      )
                  (     0         -1          0      )

 cart.    s(16) = (  1.0000000  0.0000000  0.0000000 )
                  (  0.0000000  0.0000000 -1.0000000 )
                  (  0.0000000  1.0000000  0.0000000 )


      isym = 17     120 deg rotation - cart. axis [-1,-1,-1]     

 cryst.   s(17) = (     0          0          1      )
                  (     1          0          0      )
                  (     0          1          0      )

 cart.    s(17) = (  0.0000000  1.0000000  0.0000000 )
                  (  0.0000000  0.0000000  1.0000000 )
                  (  1.0000000  0.0000000  0.0000000 )


      isym = 18     120 deg rotation - cart. axis [-1,1,1]       

 cryst.   s(18) = (     0          0         -1      )
                  (    -1          0          0      )
                  (     0          1          0      )

 cart.    s(18) = (  0.0000000 -1.0000000  0.0000000 )
                  (  0.0000000  0.0000000  1.0000000 )
                  ( -1.0000000  0.0000000  0.0000000 )


      isym = 19     120 deg rotation - cart. axis [1,1,-1]       

 cryst.   s(19) = (     0          0         -1      )
                  (     1          0          0      )
                  (     0         -1          0      )

 cart.    s(19) = (  0.0000000  1.0000000  0.0000000 )
                  (  0.0000000  0.0000000 -1.0000000 )
                  ( -1.0000000  0.0000000  0.0000000 )


      isym = 20     120 deg rotation - cart. axis [1,-1,1]       

 cryst.   s(20) = (     0          0          1      )
                  (    -1          0          0      )
                  (     0         -1          0      )

 cart.    s(20) = (  0.0000000 -1.0000000  0.0000000 )
                  (  0.0000000  0.0000000 -1.0000000 )
                  (  1.0000000  0.0000000  0.0000000 )


      isym = 21     120 deg rotation - cart. axis [1,1,1]        

 cryst.   s(21) = (     0          1          0      )
                  (     0          0          1      )
                  (     1          0          0      )

 cart.    s(21) = (  0.0000000  0.0000000  1.0000000 )
                  (  1.0000000  0.0000000  0.0000000 )
                  (  0.0000000  1.0000000  0.0000000 )


      isym = 22     120 deg rotation - cart. axis [-1,1,-1]      

 cryst.   s(22) = (     0         -1          0      )
                  (     0          0         -1      )
                  (     1          0          0      )

 cart.    s(22) = (  0.0000000  0.0000000  1.0000000 )
                  ( -1.0000000  0.0000000  0.0000000 )
                  (  0.0000000 -1.0000000  0.0000000 )


      isym = 23     120 deg rotation - cart. axis [1,-1,-1]      

 cryst.   s(23) = (     0         -1          0      )
                  (     0          0          1      )
                  (    -1          0          0      )

 cart.    s(23) = (  0.0000000  0.0000000 -1.0000000 )
                  ( -1.0000000  0.0000000  0.0000000 )
                  (  0.0000000  1.0000000  0.0000000 )


      isym = 24     120 deg rotation - cart. axis [-1,-1,1]      

 cryst.   s(24) = (     0          1          0      )
                  (     0          0         -1      )
                  (    -1          0          0      )

 cart.    s(24) = (  0.0000000  0.0000000 -1.0000000 )
                  (  1.0000000  0.0000000  0.0000000 )
                  (  0.0000000 -1.0000000  0.0000000 )


      isym = 25     inversion                                    

 cryst.   s(25) = (    -1          0          0      )
                  (     0         -1          0      )
                  (     0          0         -1      )

 cart.    s(25) = ( -1.0000000  0.0000000  0.0000000 )
                  (  0.0000000 -1.0000000  0.0000000 )
                  (  0.0000000  0.0000000 -1.0000000 )


      isym = 26     inv. 180 deg rotation - cart. axis [0,0,1]   

 cryst.   s(26) = (     1          0          0      )
                  (     0          1          0      )
                  (     0          0         -1      )

 cart.    s(26) = (  1.0000000  0.0000000  0.0000000 )
                  (  0.0000000  1.0000000  0.0000000 )
                  (  0.0000000  0.0000000 -1.0000000 )


      isym = 27     inv. 180 deg rotation - cart. axis [0,1,0]   

 cryst.   s(27) = (     1          0          0      )
                  (     0         -1          0      )
                  (     0          0          1      )

 cart.    s(27) = (  1.0000000  0.0000000  0.0000000 )
                  (  0.0000000 -1.0000000  0.0000000 )
                  (  0.0000000  0.0000000  1.0000000 )


      isym = 28     inv. 180 deg rotation - cart. axis [1,0,0]   

 cryst.   s(28) = (    -1          0          0      )
                  (     0          1          0      )
                  (     0          0          1      )

 cart.    s(28) = ( -1.0000000  0.0000000  0.0000000 )
                  (  0.0000000  1.0000000  0.0000000 )
                  (  0.0000000  0.0000000  1.0000000 )


      isym = 29     inv. 180 deg rotation - cart. axis [1,1,0]   

 cryst.   s(29) = (     0         -1          0      )
                  (    -1          0          0      )
                  (     0          0          1      )

 cart.    s(29) = (  0.0000000 -1.0000000  0.0000000 )
                  ( -1.0000000  0.0000000  0.0000000 )
                  (  0.0000000  0.0000000  1.0000000 )


      isym = 30     inv. 180 deg rotation - cart. axis [1,-1,0]  

 cryst.   s(30) = (     0          1          0      )
                  (     1          0          0      )
                  (     0          0          1      )

 cart.    s(30) = (  0.0000000  1.0000000  0.0000000 )
                  (  1.0000000  0.0000000  0.0000000 )
                  (  0.0000000  0.0000000  1.0000000 )


      isym = 31     inv.  90 deg rotation - cart. axis [0,0,-1]  

 cryst.   s(31) = (     0          1          0      )
                  (    -1          0          0      )
                  (     0          0         -1      )

 cart.    s(31) = (  0.0000000 -1.0000000  0.0000000 )
                  (  1.0000000  0.0000000  0.0000000 )
                  (  0.0000000  0.0000000 -1.0000000 )


      isym = 32     inv.  90 deg rotation - cart. axis [0,0,1]   

 cryst.   s(32) = (     0         -1          0      )
                  (     1          0          0      )
                  (     0          0         -1      )

 cart.    s(32) = (  0.0000000  1.0000000  0.0000000 )
                  ( -1.0000000  0.0000000  0.0000000 )
                  (  0.0000000  0.0000000 -1.0000000 )


      isym = 33     inv. 180 deg rotation - cart. axis [1,0,1]   

 cryst.   s(33) = (     0          0         -1      )
                  (     0          1          0      )
                  (    -1          0          0      )

 cart.    s(33) = (  0.0000000  0.0000000 -1.0000000 )
                  (  0.0000000  1.0000000  0.0000000 )
                  ( -1.0000000  0.0000000  0.0000000 )


      isym = 34     inv. 180 deg rotation - cart. axis [-1,0,1]  

 cryst.   s(34) = (     0          0          1      )
                  (     0          1          0      )
                  (     1          0          0      )

 cart.    s(34) = (  0.0000000  0.0000000  1.0000000 )
                  (  0.0000000  1.0000000  0.0000000 )
                  (  1.0000000  0.0000000  0.0000000 )


      isym = 35     inv.  90 deg rotation - cart. axis [0,1,0]   

 cryst.   s(35) = (     0          0          1      )
                  (     0         -1          0      )
                  (    -1          0          0      )

 cart.    s(35) = (  0.0000000  0.0000000 -1.0000000 )
                  (  0.0000000 -1.0000000  0.0000000 )
                  (  1.0000000  0.0000000  0.0000000 )


      isym = 36     inv.  90 deg rotation - cart. axis [0,-1,0]  

 cryst.   s(36) = (     0          0         -1      )
                  (     0         -1          0      )
                  (     1          0          0      )

 cart.    s(36) = (  0.0000000  0.0000000  1.0000000 )
                  (  0.0000000 -1.0000000  0.0000000 )
                  ( -1.0000000  0.0000000  0.0000000 )


      isym = 37     inv. 180 deg rotation - cart. axis [0,1,1]   

 cryst.   s(37) = (     1          0          0      )
                  (     0          0         -1      )
                  (     0         -1          0      )

 cart.    s(37) = (  1.0000000  0.0000000  0.0000000 )
                  (  0.0000000  0.0000000 -1.0000000 )
                  (  0.0000000 -1.0000000  0.0000000 )


      isym = 38     inv. 180 deg rotation - cart. axis [0,1,-1]  

 cryst.   s(38) = (     1          0          0      )
                  (     0          0          1      )
                  (     0          1          0      )

 cart.    s(38) = (  1.0000000  0.0000000  0.0000000 )
                  (  0.0000000  0.0000000  1.0000000 )
                  (  0.0000000  1.0000000  0.0000000 )


      isym = 39     inv.  90 deg rotation - cart. axis [-1,0,0]  

 cryst.   s(39) = (    -1          0          0      )
                  (     0          0          1      )
                  (     0         -1          0      )

 cart.    s(39) = ( -1.0000000  0.0000000  0.0000000 )
                  (  0.0000000  0.0000000 -1.0000000 )
                  (  0.0000000  1.0000000  0.0000000 )


      isym = 40     inv.  90 deg rotation - cart. axis [1,0,0]   

 cryst.   s(40) = (    -1          0          0      )
                  (     0          0         -1      )
                  (     0          1          0      )

 cart.    s(40) = ( -1.0000000  0.0000000  0.0000000 )
                  (  0.0000000  0.0000000  1.0000000 )
                  (  0.0000000 -1.0000000  0.0000000 )


      isym = 41     inv. 120 deg rotation - cart. axis [-1,-1,-1]

 cryst.   s(41) = (     0          0         -1      )
                  (    -1          0          0      )
                  (     0         -1          0      )

 cart.    s(41) = (  0.0000000 -1.0000000  0.0000000 )
                  (  0.0000000  0.0000000 -1.0000000 )
                  ( -1.0000000  0.0000000  0.0000000 )


      isym = 42     inv. 120 deg rotation - cart. axis [-1,1,1]  

 cryst.   s(42) = (     0          0          1      )
                  (     1          0          0      )
                  (     0         -1          0      )

 cart.    s(42) = (  0.0000000  1.0000000  0.0000000 )
                  (  0.0000000  0.0000000 -1.0000000 )
                  (  1.0000000  0.0000000  0.0000000 )


      isym = 43     inv. 120 deg rotation - cart. axis [1,1,-1]  

 cryst.   s(43) = (     0          0          1      )
                  (    -1          0          0      )
                  (     0          1          0      )

 cart.    s(43) = (  0.0000000 -1.0000000  0.0000000 )
                  (  0.0000000  0.0000000  1.0000000 )
                  (  1.0000000  0.0000000  0.0000000 )


      isym = 44     inv. 120 deg rotation - cart. axis [1,-1,1]  

 cryst.   s(44) = (     0          0         -1      )
                  (     1          0          0      )
                  (     0          1          0      )

 cart.    s(44) = (  0.0000000  1.0000000  0.0000000 )
                  (  0.0000000  0.0000000  1.0000000 )
                  ( -1.0000000  0.0000000  0.0000000 )


      isym = 45     inv. 120 deg rotation - cart. axis [1,1,1]   

 cryst.   s(45) = (     0         -1          0      )
                  (     0          0         -1      )
                  (    -1          0          0      )

 cart.    s(45) = (  0.0000000  0.0000000 -1.0000000 )
                  ( -1.0000000  0.0000000  0.0000000 )
                  (  0.0000000 -1.0000000  0.0000000 )


      isym = 46     inv. 120 deg rotation - cart. axis [-1,1,-1] 

 cryst.   s(46) = (     0          1          0      )
                  (     0          0          1      )
                  (    -1          0          0      )

 cart.    s(46) = (  0.0000000  0.0000000 -1.0000000 )
                  (  1.0000000  0.0000000  0.0000000 )
                  (  0.0000000  1.0000000  0.0000000 )


      isym = 47     inv. 120 deg rotation - cart. axis [1,-1,-1] 

 cryst.   s(47) = (     0          1          0      )
                  (     0          0         -1      )
                  (     1          0          0      )

 cart.    s(47) = (  0.0000000  0.0000000  1.0000000 )
                  (  1.0000000  0.0000000  0.0000000 )
                  (  0.0000000 -1.0000000  0.0000000 )


      isym = 48     inv. 120 deg rotation - cart. axis [-1,-1,1] 

 cryst.   s(48) = (     0         -1          0      )
                  (     0          0          1      )
                  (     1          0          0      )

 cart.    s(48) = (  0.0000000  0.0000000  1.0000000 )
                  ( -1.0000000  0.0000000  0.0000000 )
                  (  0.0000000  1.0000000  0.0000000 )


     point group O_h (m-3m) 
     there are 10 classes
     the character table:

       E     8C3   3C2   6C4   6C2'  i     8S6   3s_h  6S4   6s_d 
A_1g   1.00  1.00  1.00  1.00  1.00  1.00  1.00  1.00  1.00  1.00
A_2g   1.00  1.00  1.00 -1.00 -1.00  1.00  1.00  1.00 -1.00 -1.00
E_g    2.00 -1.00  2.00  0.00  0.00  2.00 -1.00  2.00  0.00  0.00
T_1g   3.00  0.00 -1.00  1.00 -1.00  3.00  0.00 -1.00  1.00 -1.00
T_2g   3.00  0.00 -1.00 -1.00  1.00  3.00  0.00 -1.00 -1.00  1.00
A_1u   1.00  1.00  1.00  1.00  1.00 -1.00 -1.00 -1.00 -1.00 -1.00
A_2u   1.00  1.00  1.00 -1.00 -1.00 -1.00 -1.00 -1.00  1.00  1.00
E_u    2.00 -1.00  2.00  0.00  0.00 -2.00  1.00 -2.00  0.00  0.00
T_1u   3.00  0.00 -1.00  1.00 -1.00 -3.00  0.00  1.00 -1.00  1.00
T_2u   3.00  0.00 -1.00 -1.00  1.00 -3.00  0.00  1.00  1.00 -1.00

     the symmetry operations in each class and the name of the first element:

     E        1
          identity                                               
     8C3     17   19   20   18   24   21   22   23
          120 deg rotation - cart. axis [-1,-1,-1]               
     3C2      2    4    3
          180 deg rotation - cart. axis [0,0,1]                  
     6C4      7    8   15   16   12   11
           90 deg rotation - cart. axis [0,0,-1]                 
     6C2'     5    6   14   13   10    9
          180 deg rotation - cart. axis [1,1,0]                  
     i       25
          inversion                                              
     8S6     41   43   44   42   48   45   46   47
          inv. 120 deg rotation - cart. axis [-1,-1,-1]          
     3s_h    26   28   27
          inv. 180 deg rotation - cart. axis [0,0,1]             
     6S4     31   32   39   40   36   35
          inv.  90 deg rotation - cart. axis [0,0,-1]            
     6s_d    29   30   38   37   34   33
          inv. 180 deg rotation - cart. axis [1,1,0]             

   Cartesian axes

     site n.     atom                  positions (alat units)
         1           Fe  tau(   1) = (   0.0000000   0.0000000   0.0000000  )
         2           Mg  tau(   2) = (   0.0000000   0.5000000   0.5000000  )
         3           Mg  tau(   3) = (   0.5000000   0.0000000   0.5000000  )
         4           Mg  tau(   4) = (   0.5000000   0.5000000   0.0000000  )
         5           O   tau(   5) = (   0.5000000   0.5000000   0.5000000  )
         6           O   tau(   6) = (   0.5000000   0.0000000   0.0000000  )
         7           O   tau(   7) = (   0.0000000   0.5000000   0.0000000  )
         8           O   tau(   8) = (   0.0000000   0.0000000   0.5000000  )

   Crystallographic axes

     site n.     atom                  positions (cryst. coord.)
         1           Fe  tau(   1) = (  0.0000000  0.0000000  0.0000000  )
         2           Mg  tau(   2) = (  0.0000000  0.5000000  0.5000000  )
         3           Mg  tau(   3) = (  0.5000000  0.0000000  0.5000000  )
         4           Mg  tau(   4) = (  0.5000000  0.5000000  0.0000000  )
         5           O   tau(   5) = (  0.5000000  0.5000000  0.5000000  )
         6           O   tau(   6) = (  0.5000000  0.0000000  0.0000000  )
         7           O   tau(   7) = (  0.0000000  0.5000000  0.0000000  )
         8           O   tau(   8) = (  0.0000000  0.0000000  0.5000000  )

     number of k points=     4  Fermi-Dirac smearing, width (Ry)=  0.0019
                       cart. coord. in units 2pi/alat
        k(    1) = (   0.0000000   0.0000000   0.0000000), wk =   0.1250000
        k(    2) = (   0.0000000   0.0000000  -0.5000000), wk =   0.3750000
        k(    3) = (   0.0000000  -0.5000000  -0.5000000), wk =   0.3750000
        k(    4) = (  -0.5000000  -0.5000000  -0.5000000), wk =   0.1250000

                       cryst. coord.
        k(    1) = (   0.0000000   0.0000000   0.0000000), wk =   0.1250000
        k(    2) = (   0.0000000   0.0000000  -0.5000000), wk =   0.3750000
        k(    3) = (   0.0000000  -0.5000000  -0.5000000), wk =   0.3750000
        k(    4) = (  -0.5000000  -0.5000000  -0.5000000), wk =   0.1250000

     Dense  grid:  1540499 G-vectors     FFT dimensions: ( 144, 144, 144)

     Dynamical RAM for                 wfc:       1.96 MB

     Dynamical RAM for     wfc (w. buffer):      17.63 MB

     Dynamical RAM for             U proj.:       0.31 MB

     Dynamical RAM for  U proj. (w. buff.):       2.75 MB

     Dynamical RAM for           str. fact:       1.47 MB

     Dynamical RAM for           local pot:       0.00 MB

     Dynamical RAM for          nlocal pot:       1.84 MB

     Dynamical RAM for                qrad:       1.94 MB

     Dynamical RAM for          rho,v,vnew:       5.79 MB

     Dynamical RAM for               rhoin:       1.93 MB

     Dynamical RAM for            rho*nmix:      15.67 MB

     Dynamical RAM for           G-vectors:       2.08 MB

     Dynamical RAM for          h,s,v(r/c):       0.00 MB

     Dynamical RAM for          <psi|beta>:       0.01 MB

     Dynamical RAM for                 psi:       3.92 MB

     Dynamical RAM for                hpsi:       3.92 MB

     Dynamical RAM for      wfcinit/wfcrot:       6.43 MB

     Estimated static dynamical RAM per process >      55.90 MB

     Estimated max dynamical RAM per process >      63.76 MB

     Estimated total dynamical RAM >       2.99 GB
     Generating pointlists ...
     new r_m :   0.2063 (alat units)  1.6413 (a.u.) for type    1
     new r_m :   0.2063 (alat units)  1.6413 (a.u.) for type    2
     new r_m :   0.2063 (alat units)  1.6413 (a.u.) for type    3

     Initial potential from superposition of free atoms

     starting charge   39.00170, renormalised to   46.00000

     negative rho (up, down):  5.519E-07 5.519E-07
 --- in v_hubbard ---
Hubbard energy    0.4410
 -------
     Number of +U iterations with fixed ns =100
     Starting occupations:
 --- enter write_ns ---
 LDA+U parameters:
U( 1)     =  5.00000000
atom    1   Tr[ns(na)] (up, down, total) =   3.00000  3.00000  6.00000
   spin  1
    eigenvalues: 
  0.600  0.600  0.600  0.600  0.600
    eigenvectors:
  1.000  0.000  0.000  0.000  0.000
  0.000  1.000  0.000  0.000  0.000
  0.000  0.000  1.000  0.000  0.000
  0.000  0.000  0.000  1.000  0.000
  0.000  0.000  0.000  0.000  1.000
    occupations:
  0.600  0.000  0.000  0.000  0.000
  0.000  0.600  0.000  0.000  0.000
  0.000  0.000  0.600  0.000  0.000
  0.000  0.000  0.000  0.600  0.000
  0.000  0.000  0.000  0.000  0.600
   spin  2
    eigenvalues: 
  0.600  0.600  0.600  0.600  0.600
    eigenvectors:
  1.000  0.000  0.000  0.000  0.000
  0.000  1.000  0.000  0.000  0.000
  0.000  0.000  1.000  0.000  0.000
  0.000  0.000  0.000  1.000  0.000
  0.000  0.000  0.000  0.000  1.000
    occupations:
  0.600  0.000  0.000  0.000  0.000
  0.000  0.600  0.000  0.000  0.000
  0.000  0.000  0.600  0.000  0.000
  0.000  0.000  0.000  0.600  0.000
  0.000  0.000  0.000  0.000  0.600
atomic mag. moment =   0.00000
N of occupied +U levels =    6.000000
 --- exit write_ns ---
 Atomic wfc used for LDA+U Projector are NOT orthogonalized
     Starting wfcs are   52 randomized atomic wfcs

     total cpu time spent up to now is        4.2 secs

     Self-consistent Calculation

     iteration #  1     ecut=   800.00 Ry     beta= 0.30
     Davidson diagonalization with overlap
     ethr =  1.00E-02,  avg # of iterations = 10.2
 --- enter write_ns ---
 LDA+U parameters:
U( 1)     =  5.00000000
atom    1   Tr[ns(na)] (up, down, total) =   0.19347  0.15393  0.34740
   spin  1
    eigenvalues: 
  0.029  0.029  0.029  0.054  0.054
    eigenvectors:
  0.000  0.000  0.000  0.001  0.999
  0.134  0.022  0.844  0.000  0.000
  0.368  0.506  0.127  0.000  0.000
  0.000  0.000  0.000  0.999  0.001
  0.498  0.473  0.029  0.000  0.000
    occupations:
  0.054 -0.000 -0.000  0.000  0.000
 -0.000  0.029 -0.000  0.000  0.000
 -0.000 -0.000  0.029  0.000  0.000
  0.000  0.000  0.000  0.054 -0.000
  0.000  0.000  0.000 -0.000  0.029
   spin  2
    eigenvalues: 
  0.017  0.017  0.017  0.052  0.052
    eigenvectors:
  0.000  0.000  0.000  0.005  0.995
  0.109  0.006  0.885  0.000  0.000
  0.315  0.616  0.068  0.000  0.000
  0.000  0.000  0.000  0.995  0.005
  0.576  0.378  0.046  0.000  0.000
    occupations:
  0.052 -0.000 -0.000  0.000  0.000
 -0.000  0.017 -0.000  0.000  0.000
 -0.000 -0.000  0.017  0.000  0.000
  0.000  0.000  0.000  0.052 -0.000
  0.000  0.000  0.000 -0.000  0.017
atomic mag. moment =   0.03954
N of occupied +U levels =    0.347398
 --- exit write_ns ---
 Modify starting ns matrices according to input values 
 --- enter write_ns ---
 LDA+U parameters:
U( 1)     =  5.00000000
atom    1   Tr[ns(na)] (up, down, total) =   5.00000  1.00000  6.00000
   spin  1
    eigenvalues: 
  1.000  1.000  1.000  1.000  1.000
    eigenvectors:
  0.009  0.062  0.730  0.172  0.028
  0.110  0.522  0.185  0.173  0.009
  0.188  0.034  0.000  0.251  0.526
  0.044  0.115  0.085  0.361  0.394
  0.649  0.266  0.000  0.043  0.043
    occupations:
  1.000  0.000 -0.000 -0.000  0.000
  0.000  1.000  0.000  0.000 -0.000
 -0.000  0.000  1.000 -0.000  0.000
 -0.000  0.000 -0.000  1.000 -0.000
  0.000 -0.000  0.000 -0.000  1.000
   spin  2
    eigenvalues: 
 -0.000 -0.000  0.000  0.000  1.000
    eigenvectors:
  0.000  0.000  0.000  0.995  0.005
  0.000  1.000  0.000  0.000  0.000
  0.996  0.000  0.004  0.000  0.000
  0.000  0.000  0.000  0.005  0.995
  0.004  0.000  0.996  0.000  0.000
    occupations:
  0.005  0.000  0.000  0.074 -0.000
  0.000  0.000  0.000  0.000 -0.000
  0.000  0.000  0.000  0.000 -0.000
  0.074  0.000  0.000  0.995 -0.000
 -0.000 -0.000 -0.000 -0.000  0.000
atomic mag. moment =   4.00000
N of occupied +U levels =    6.000000
 --- exit write_ns ---

     RESET ns to initial values (iter <= mixing_fixed_ns)


     negative rho (up, down):  2.701E-07 3.026E-07
 --- in v_hubbard ---
Hubbard energy   -0.0000
 -------

     total cpu time spent up to now is        8.9 secs

     total energy              =    -372.65124414 Ry
     estimated scf accuracy    <      54.87494883 Ry

     total magnetization       =     4.00 Bohr mag/cell
     absolute magnetization    =     4.00 Bohr mag/cell

     iteration #  2     ecut=   800.00 Ry     beta= 0.30
     Davidson diagonalization with overlap
     ethr =  1.00E-02,  avg # of iterations =  9.2
 --- enter write_ns ---
 LDA+U parameters:
U( 1)     =  5.00000000
atom    1   Tr[ns(na)] (up, down, total) =   4.76015  3.84175  8.60190
   spin  1
    eigenvalues: 
  0.940  0.940  0.960  0.960  0.960
    eigenvectors:
  0.005  0.995  0.000  0.000  0.000
  0.000  0.000  0.116  0.000  0.884
  0.000  0.000  0.390  0.557  0.053
  0.995  0.005  0.000  0.000  0.000
  0.000  0.000  0.494  0.443  0.063
    occupations:
  0.940 -0.000 -0.000  0.000  0.000
 -0.000  0.960 -0.000  0.000  0.000
 -0.000 -0.000  0.960  0.000  0.000
  0.000  0.000  0.000  0.940 -0.000
  0.000  0.000  0.000 -0.000  0.960
   spin  2
    eigenvalues: 
  0.719  0.719  0.801  0.801  0.801
    eigenvectors:
  0.012  0.988  0.000  0.000  0.000
  0.000  0.000  0.117  0.020  0.863
  0.000  0.000  0.351  0.541  0.108
  0.988  0.012  0.000  0.000  0.000
  0.000  0.000  0.532  0.440  0.028
    occupations:
  0.719 -0.000 -0.000  0.000  0.000
 -0.000  0.801 -0.000  0.000  0.000
 -0.000 -0.000  0.801  0.000  0.000
  0.000  0.000  0.000  0.719 -0.000
  0.000  0.000  0.000 -0.000  0.801
atomic mag. moment =   0.91841
N of occupied +U levels =    8.601899
 --- exit write_ns ---

     RESET ns to initial values (iter <= mixing_fixed_ns)


     negative rho (up, down):  1.646E-07 1.998E-07
 --- in v_hubbard ---
Hubbard energy   -0.0000
 -------

     total cpu time spent up to now is       13.9 secs

     total energy              =    -378.63771385 Ry
     estimated scf accuracy    <      11.94959104 Ry

     total magnetization       =     4.00 Bohr mag/cell
     absolute magnetization    =     4.00 Bohr mag/cell

     iteration #  3     ecut=   800.00 Ry     beta= 0.30
     Davidson diagonalization with overlap
     ethr =  1.00E-02,  avg # of iterations =  2.2
 --- enter write_ns ---
 LDA+U parameters:
U( 1)     =  5.00000000
atom    1   Tr[ns(na)] (up, down, total) =   4.59696  1.14945  5.74641
   spin  1
    eigenvalues: 
  0.915  0.915  0.922  0.922  0.922
    eigenvectors:
  0.003  0.997  0.000  0.000  0.000
  0.000  0.000  0.119  0.002  0.879
  0.000  0.000  0.369  0.563  0.069
  0.997  0.003  0.000  0.000  0.000
  0.000  0.000  0.513  0.435  0.052
    occupations:
  0.915 -0.000 -0.000  0.000  0.000
 -0.000  0.922 -0.000  0.000  0.000
 -0.000 -0.000  0.922  0.000  0.000
  0.000  0.000  0.000  0.915 -0.000
  0.000  0.000  0.000 -0.000  0.922
   spin  2
    eigenvalues: 
  0.068  0.068  0.068  0.472  0.472
    eigenvectors:
  0.000  0.000  0.000  0.915  0.085
  0.141  0.094  0.765  0.000  0.000
  0.321  0.450  0.229  0.000  0.000
  0.000  0.000  0.000  0.085  0.915
  0.538  0.456  0.006  0.000  0.000
    occupations:
  0.472 -0.000 -0.000  0.000  0.000
 -0.000  0.068 -0.000  0.000  0.000
 -0.000 -0.000  0.068 -0.000  0.000
  0.000  0.000 -0.000  0.472 -0.000
  0.000  0.000  0.000 -0.000  0.068
atomic mag. moment =   3.44751
N of occupied +U levels =    5.746414
 --- exit write_ns ---

     RESET ns to initial values (iter <= mixing_fixed_ns)


     negative rho (up, down):  6.779E-08 9.611E-08
 --- in v_hubbard ---
Hubbard energy   -0.0000
 -------

     total cpu time spent up to now is       16.4 secs

     total energy              =    -381.60981665 Ry
     estimated scf accuracy    <       1.78484746 Ry

     total magnetization       =     4.00 Bohr mag/cell
     absolute magnetization    =     4.01 Bohr mag/cell

     iteration #  4     ecut=   800.00 Ry     beta= 0.30
     Davidson diagonalization with overlap
     ethr =  3.88E-03,  avg # of iterations =  2.4
 --- enter write_ns ---
 LDA+U parameters:
U( 1)     =  5.00000000
atom    1   Tr[ns(na)] (up, down, total) =   4.81583  1.18763  6.00346
   spin  1
    eigenvalues: 
  0.933  0.933  0.983  0.983  0.983
    eigenvectors:
  0.012  0.988  0.000  0.000  0.000
  0.000  0.000  0.116  0.007  0.878
  0.000  0.000  0.377  0.540  0.082
  0.988  0.012  0.000  0.000  0.000
  0.000  0.000  0.507  0.453  0.040
    occupations:
  0.933 -0.000 -0.000  0.000  0.000
 -0.000  0.983 -0.000  0.000  0.000
 -0.000 -0.000  0.983  0.000  0.000
  0.000  0.000  0.000  0.933 -0.000
  0.000  0.000  0.000 -0.000  0.983
   spin  2
    eigenvalues: 
  0.046  0.046  0.046  0.525  0.525
    eigenvectors:
  0.000  0.000  0.000  0.997  0.003
  0.123  0.161  0.716  0.000  0.000
  0.363  0.622  0.016  0.000  0.000
  0.000  0.000  0.000  0.003  0.997
  0.515  0.217  0.268  0.000  0.000
    occupations:
  0.525 -0.000 -0.000  0.000  0.000
 -0.000  0.046 -0.000  0.000  0.000
 -0.000 -0.000  0.046 -0.000  0.000
  0.000  0.000 -0.000  0.525 -0.000
  0.000  0.000  0.000 -0.000  0.046
atomic mag. moment =   3.62820
N of occupied +U levels =    6.003457
 --- exit write_ns ---

     RESET ns to initial values (iter <= mixing_fixed_ns)

 --- in v_hubbard ---
Hubbard energy   -0.0000
 -------

     total cpu time spent up to now is       18.7 secs

     total energy              =    -381.74053721 Ry
     estimated scf accuracy    <       0.62752303 Ry

     total magnetization       =     4.00 Bohr mag/cell
     absolute magnetization    =     4.01 Bohr mag/cell

     iteration #  5     ecut=   800.00 Ry     beta= 0.30
     Davidson diagonalization with overlap
     ethr =  1.36E-03,  avg # of iterations =  3.4
 --- enter write_ns ---
 LDA+U parameters:
U( 1)     =  5.00000000
atom    1   Tr[ns(na)] (up, down, total) =   4.97388  1.34020  6.31408
   spin  1
    eigenvalues: 
  0.994  0.994  0.994  0.997  0.997
    eigenvectors:
  0.000  0.000  0.000  0.014  0.986
  0.118  0.002  0.880  0.000  0.000
  0.421  0.504  0.075  0.000  0.000
  0.000  0.000  0.000  0.986  0.014
  0.461  0.494  0.045  0.000  0.000
    occupations:
  0.997 -0.000 -0.000  0.000  0.000
 -0.000  0.994 -0.000  0.000  0.000
 -0.000 -0.000  0.994  0.000  0.000
  0.000  0.000  0.000  0.997 -0.000
  0.000  0.000  0.000 -0.000  0.994
   spin  2
    eigenvalues: 
  0.088  0.088  0.088  0.538  0.538
    eigenvectors:
  0.000  0.000  0.000  0.037  0.963
  0.113  0.044  0.843  0.000  0.000
  0.325  0.674  0.000  0.000  0.000
  0.000  0.000  0.000  0.963  0.037
  0.562  0.282  0.157  0.000  0.000
    occupations:
  0.538 -0.000 -0.000  0.000  0.000
 -0.000  0.088 -0.000  0.000  0.000
 -0.000 -0.000  0.088 -0.000  0.000
  0.000  0.000 -0.000  0.538 -0.000
  0.000  0.000  0.000 -0.000  0.088
atomic mag. moment =   3.63369
N of occupied +U levels =    6.314077
 --- exit write_ns ---

     RESET ns to initial values (iter <= mixing_fixed_ns)

 --- in v_hubbard ---
Hubbard energy   -0.0000
 -------

     total cpu time spent up to now is       21.3 secs

     total energy              =    -381.93382431 Ry
     estimated scf accuracy    <       0.11194816 Ry

     total magnetization       =     4.00 Bohr mag/cell
     absolute magnetization    =     4.01 Bohr mag/cell

     iteration #  6     ecut=   800.00 Ry     beta= 0.30
     Davidson diagonalization with overlap
     ethr =  2.43E-04,  avg # of iterations =  4.8
 --- enter write_ns ---
 LDA+U parameters:
U( 1)     =  5.00000000
atom    1   Tr[ns(na)] (up, down, total) =   4.98412  1.32357  6.30769
   spin  1
    eigenvalues: 
  0.996  0.996  0.996  0.997  0.997
    eigenvectors:
  0.000  0.000  0.000  0.000  1.000
  0.116  0.001  0.883  0.000  0.000
  0.364  0.576  0.060  0.000  0.000
  0.000  0.000  0.000  1.000  0.000
  0.520  0.423  0.057  0.000  0.000
    occupations:
  0.997 -0.000 -0.000  0.000  0.000
 -0.000  0.996 -0.000  0.000  0.000
 -0.000 -0.000  0.996  0.000  0.000
  0.000  0.000  0.000  0.997 -0.000
  0.000  0.000  0.000 -0.000  0.996
   spin  2
    eigenvalues: 
  0.044  0.044  0.044  0.595  0.595
    eigenvectors:
  0.000  0.000  0.000  0.068  0.932
  0.078  0.069  0.853  0.000  0.000
  0.408  0.592  0.001  0.000  0.000
  0.000  0.000  0.000  0.932  0.068
  0.515  0.339  0.146  0.000  0.000
    occupations:
  0.595 -0.000 -0.000  0.000  0.000
 -0.000  0.044 -0.000  0.000  0.000
 -0.000 -0.000  0.044 -0.000  0.000
  0.000  0.000 -0.000  0.595 -0.000
  0.000  0.000  0.000 -0.000  0.044
atomic mag. moment =   3.66055
N of occupied +U levels =    6.307692
 --- exit write_ns ---

     RESET ns to initial values (iter <= mixing_fixed_ns)

 --- in v_hubbard ---
Hubbard energy   -0.0000
 -------

     total cpu time spent up to now is       24.0 secs

     total energy              =    -381.97478847 Ry
     estimated scf accuracy    <       0.02795532 Ry

     total magnetization       =     4.00 Bohr mag/cell
     absolute magnetization    =     4.01 Bohr mag/cell

     iteration #  7     ecut=   800.00 Ry     beta= 0.30
     Davidson diagonalization with overlap
     ethr =  6.08E-05,  avg # of iterations =  4.0
 --- enter write_ns ---
 LDA+U parameters:
U( 1)     =  5.00000000
atom    1   Tr[ns(na)] (up, down, total) =   4.98297  1.30769  6.29067
   spin  1
    eigenvalues: 
  0.996  0.996  0.996  0.997  0.997
    eigenvectors:
  0.000  0.000  0.000  0.010  0.990
  0.108  0.001  0.891  0.000  0.000
  0.404  0.537  0.058  0.000  0.000
  0.000  0.000  0.000  0.990  0.010
  0.488  0.462  0.050  0.000  0.000
    occupations:
  0.997 -0.000 -0.000  0.000  0.000
 -0.000  0.996 -0.000  0.000  0.000
 -0.000 -0.000  0.996  0.000  0.000
  0.000  0.000  0.000  0.997 -0.000
  0.000  0.000  0.000 -0.000  0.996
   spin  2
    eigenvalues: 
  0.042  0.042  0.042  0.591  0.591
    eigenvectors:
  0.000  0.000  0.000  0.067  0.933
  0.109  0.001  0.890  0.000  0.000
  0.404  0.538  0.058  0.000  0.000
  0.000  0.000  0.000  0.933  0.067
  0.487  0.461  0.051  0.000  0.000
    occupations:
  0.591 -0.000 -0.000  0.000  0.000
 -0.000  0.042 -0.000  0.000  0.000
 -0.000 -0.000  0.042 -0.000  0.000
  0.000  0.000 -0.000  0.591 -0.000
  0.000  0.000  0.000 -0.000  0.042
atomic mag. moment =   3.67528
N of occupied +U levels =    6.290665
 --- exit write_ns ---

     RESET ns to initial values (iter <= mixing_fixed_ns)

 --- in v_hubbard ---
Hubbard energy   -0.0000
 -------

     total cpu time spent up to now is       26.7 secs

     total energy              =    -381.97816809 Ry
     estimated scf accuracy    <       0.00259096 Ry

     total magnetization       =     4.00 Bohr mag/cell
     absolute magnetization    =     4.01 Bohr mag/cell

     iteration #  8     ecut=   800.00 Ry     beta= 0.30
     Davidson diagonalization with overlap
     ethr =  5.63E-06,  avg # of iterations =  4.8
 --- enter write_ns ---
 LDA+U parameters:
U( 1)     =  5.00000000
atom    1   Tr[ns(na)] (up, down, total) =   4.98022  1.30114  6.28136
   spin  1
    eigenvalues: 
  0.996  0.996  0.996  0.997  0.997
    eigenvectors:
  0.000  0.000  0.000  0.010  0.990
  0.109  0.010  0.881  0.000  0.000
  0.359  0.556  0.085  0.000  0.000
  0.000  0.000  0.000  0.990  0.010
  0.532  0.434  0.034  0.000  0.000
    occupations:
  0.997 -0.000 -0.000  0.000  0.000
 -0.000  0.996 -0.000  0.000  0.000
 -0.000 -0.000  0.996  0.000  0.000
  0.000  0.000  0.000  0.997 -0.000
  0.000  0.000  0.000 -0.000  0.996
   spin  2
    eigenvalues: 
  0.041  0.041  0.041  0.589  0.589
    eigenvectors:
  0.000  0.000  0.000  0.997  0.003
  0.098  0.689  0.213  0.000  0.000
  0.523  0.273  0.203  0.000  0.000
  0.000  0.000  0.000  0.003  0.997
  0.379  0.037  0.584  0.000  0.000
    occupations:
  0.589 -0.000 -0.000  0.000  0.000
 -0.000  0.041 -0.000  0.000  0.000
 -0.000 -0.000  0.041 -0.000  0.000
  0.000  0.000 -0.000  0.589 -0.000
  0.000  0.000  0.000 -0.000  0.041
atomic mag. moment =   3.67908
N of occupied +U levels =    6.281360
 --- exit write_ns ---

     RESET ns to initial values (iter <= mixing_fixed_ns)

 --- in v_hubbard ---
Hubbard energy   -0.0000
 -------

     total cpu time spent up to now is       29.5 secs

     total energy              =    -381.97886000 Ry
     estimated scf accuracy    <       0.00030274 Ry

     total magnetization       =     4.00 Bohr mag/cell
     absolute magnetization    =     4.01 Bohr mag/cell

     iteration #  9     ecut=   800.00 Ry     beta= 0.30
     Davidson diagonalization with overlap
     ethr =  6.58E-07,  avg # of iterations =  3.6
 --- enter write_ns ---
 LDA+U parameters:
U( 1)     =  5.00000000
atom    1   Tr[ns(na)] (up, down, total) =   4.97969  1.29735  6.27704
   spin  1
    eigenvalues: 
  0.995  0.995  0.995  0.997  0.997
    eigenvectors:
  0.000  0.000  0.000  0.003  0.997
  0.112  0.003  0.885  0.000  0.000
  0.382  0.551  0.067  0.000  0.000
  0.000  0.000  0.000  0.997  0.003
  0.506  0.447  0.047  0.000  0.000
    occupations:
  0.997 -0.000 -0.000  0.000  0.000
 -0.000  0.995 -0.000  0.000  0.000
 -0.000 -0.000  0.995  0.000  0.000
  0.000  0.000  0.000  0.997 -0.000
  0.000  0.000  0.000 -0.000  0.995
   spin  2
    eigenvalues: 
  0.041  0.041  0.041  0.587  0.587
    eigenvectors:
  0.000  0.000  0.000  0.007  0.993
  0.082  0.023  0.895  0.000  0.000
  0.368  0.629  0.003  0.000  0.000
  0.000  0.000  0.000  0.993  0.007
  0.550  0.349  0.102  0.000  0.000
    occupations:
  0.587 -0.000 -0.000  0.000  0.000
 -0.000  0.041 -0.000  0.000  0.000
 -0.000 -0.000  0.041 -0.000  0.000
  0.000  0.000 -0.000  0.587 -0.000
  0.000  0.000  0.000 -0.000  0.041
atomic mag. moment =   3.68233
N of occupied +U levels =    6.277038
 --- exit write_ns ---

     RESET ns to initial values (iter <= mixing_fixed_ns)

 --- in v_hubbard ---
Hubbard energy   -0.0000
 -------

     total cpu time spent up to now is       32.4 secs

     total energy              =    -381.97884022 Ry
     estimated scf accuracy    <       0.00025264 Ry

     total magnetization       =     4.00 Bohr mag/cell
     absolute magnetization    =     4.01 Bohr mag/cell

     iteration # 10     ecut=   800.00 Ry     beta= 0.30
     Davidson diagonalization with overlap
     ethr =  5.49E-07,  avg # of iterations =  2.1
 --- enter write_ns ---
 LDA+U parameters:
U( 1)     =  5.00000000
atom    1   Tr[ns(na)] (up, down, total) =   4.98076  1.30224  6.28301
   spin  1
    eigenvalues: 
  0.996  0.996  0.996  0.997  0.997
    eigenvectors:
  0.000  0.000  0.000  0.001  0.999
  0.123  0.019  0.858  0.000  0.000
  0.342  0.548  0.110  0.000  0.000
  0.000  0.000  0.000  0.999  0.001
  0.535  0.433  0.032  0.000  0.000
    occupations:
  0.997 -0.000 -0.000  0.000  0.000
 -0.000  0.996 -0.000  0.000  0.000
 -0.000 -0.000  0.996  0.000  0.000
  0.000  0.000  0.000  0.997 -0.000
  0.000  0.000  0.000 -0.000  0.996
   spin  2
    eigenvalues: 
  0.041  0.041  0.041  0.589  0.589
    eigenvectors:
  0.000  0.000  0.000  0.066  0.934
  0.117  0.021  0.862  0.000  0.000
  0.435  0.549  0.016  0.000  0.000
  0.000  0.000  0.000  0.934  0.066
  0.448  0.430  0.122  0.000  0.000
    occupations:
  0.589 -0.000 -0.000  0.000  0.000
 -0.000  0.041 -0.000  0.000  0.000
 -0.000 -0.000  0.041 -0.000  0.000
  0.000  0.000 -0.000  0.589 -0.000
  0.000  0.000  0.000 -0.000  0.041
atomic mag. moment =   3.67852
N of occupied +U levels =    6.283006
 --- exit write_ns ---

     RESET ns to initial values (iter <= mixing_fixed_ns)

 --- in v_hubbard ---
Hubbard energy   -0.0000
 -------

     total cpu time spent up to now is       35.0 secs

     total energy              =    -381.97893353 Ry
     estimated scf accuracy    <       0.00009201 Ry

     total magnetization       =     4.00 Bohr mag/cell
     absolute magnetization    =     4.01 Bohr mag/cell

     iteration # 11     ecut=   800.00 Ry     beta= 0.30
     Davidson diagonalization with overlap
     ethr =  2.00E-07,  avg # of iterations =  2.0
 --- enter write_ns ---
 LDA+U parameters:
U( 1)     =  5.00000000
atom    1   Tr[ns(na)] (up, down, total) =   4.98045  1.30101  6.28147
   spin  1
    eigenvalues: 
  0.996  0.996  0.996  0.997  0.997
    eigenvectors:
  0.000  0.000  0.000  0.989  0.011
  0.115  0.022  0.862  0.000  0.000
  0.355  0.533  0.112  0.000  0.000
  0.000  0.000  0.000  0.011  0.989
  0.530  0.445  0.025  0.000  0.000
    occupations:
  0.997 -0.000 -0.000  0.000  0.000
 -0.000  0.996 -0.000  0.000  0.000
 -0.000 -0.000  0.996  0.000  0.000
  0.000  0.000  0.000  0.997 -0.000
  0.000  0.000  0.000 -0.000  0.996
   spin  2
    eigenvalues: 
  0.041  0.041  0.041  0.589  0.589
    eigenvectors:
  0.000  0.000  0.000  0.066  0.934
  0.168  0.006  0.826  0.000  0.000
  0.501  0.362  0.137  0.000  0.000
  0.000  0.000  0.000  0.934  0.066
  0.331  0.632  0.037  0.000  0.000
    occupations:
  0.589 -0.000 -0.000  0.000  0.000
 -0.000  0.041 -0.000  0.000  0.000
 -0.000 -0.000  0.041 -0.000  0.000
  0.000  0.000 -0.000  0.589 -0.000
  0.000  0.000  0.000 -0.000  0.041
atomic mag. moment =   3.67944
N of occupied +U levels =    6.281470
 --- exit write_ns ---

     RESET ns to initial values (iter <= mixing_fixed_ns)

 --- in v_hubbard ---
Hubbard energy   -0.0000
 -------

     total cpu time spent up to now is       37.4 secs

     total energy              =    -381.97893135 Ry
     estimated scf accuracy    <       0.00001779 Ry

     total magnetization       =     4.00 Bohr mag/cell
     absolute magnetization    =     4.01 Bohr mag/cell

     iteration # 12     ecut=   800.00 Ry     beta= 0.30
     Davidson diagonalization with overlap
     ethr =  3.87E-08,  avg # of iterations =  3.8
 --- enter write_ns ---
 LDA+U parameters:
U( 1)     =  5.00000000
atom    1   Tr[ns(na)] (up, down, total) =   4.98010  1.29942  6.27953
   spin  1
    eigenvalues: 
  0.996  0.996  0.996  0.997  0.997
    eigenvectors:
  0.000  0.000  0.000  0.020  0.980
  0.124  0.010  0.867  0.000  0.000
  0.389  0.515  0.096  0.000  0.000
  0.000  0.000  0.000  0.980  0.020
  0.488  0.476  0.037  0.000  0.000
    occupations:
  0.997 -0.000 -0.000  0.000  0.000
 -0.000  0.996 -0.000  0.000  0.000
 -0.000 -0.000  0.996  0.000  0.000
  0.000  0.000  0.000  0.997 -0.000
  0.000  0.000  0.000 -0.000  0.996
   spin  2
    eigenvalues: 
  0.041  0.041  0.041  0.588  0.588
    eigenvectors:
  0.000  0.000  0.000  0.999  0.001
  0.106  0.113  0.781  0.000  0.000
  0.224  0.564  0.212  0.000  0.000
  0.000  0.000  0.000  0.001  0.999
  0.669  0.323  0.007  0.000  0.000
    occupations:
  0.588 -0.000 -0.000  0.000  0.000
 -0.000  0.041 -0.000  0.000  0.000
 -0.000 -0.000  0.041 -0.000  0.000
  0.000  0.000 -0.000  0.588 -0.000
  0.000  0.000  0.000 -0.000  0.041
atomic mag. moment =   3.68068
N of occupied +U levels =    6.279527
 --- exit write_ns ---

     RESET ns to initial values (iter <= mixing_fixed_ns)

 --- in v_hubbard ---
Hubbard energy   -0.0000
 -------

     total cpu time spent up to now is       40.1 secs

     total energy              =    -381.97893748 Ry
     estimated scf accuracy    <       0.00001200 Ry

     total magnetization       =     4.00 Bohr mag/cell
     absolute magnetization    =     4.01 Bohr mag/cell

     iteration # 13     ecut=   800.00 Ry     beta= 0.30
     Davidson diagonalization with overlap
     ethr =  2.61E-08,  avg # of iterations =  2.0
 --- enter write_ns ---
 LDA+U parameters:
U( 1)     =  5.00000000
atom    1   Tr[ns(na)] (up, down, total) =   4.98022  1.30005  6.28028
   spin  1
    eigenvalues: 
  0.996  0.996  0.996  0.997  0.997
    eigenvectors:
  0.000  0.000  0.000  0.009  0.991
  0.110  0.000  0.890  0.000  0.000
  0.389  0.564  0.047  0.000  0.000
  0.000  0.000  0.000  0.991  0.009
  0.501  0.436  0.063  0.000  0.000
    occupations:
  0.997 -0.000 -0.000  0.000  0.000
 -0.000  0.996 -0.000  0.000  0.000
 -0.000 -0.000  0.996  0.000  0.000
  0.000  0.000  0.000  0.997 -0.000
  0.000  0.000  0.000 -0.000  0.996
   spin  2
    eigenvalues: 
  0.041  0.041  0.041  0.589  0.589
    eigenvectors:
  0.000  0.000  0.000  0.066  0.934
  0.149  0.000  0.850  0.000  0.000
  0.524  0.375  0.101  0.000  0.000
  0.000  0.000  0.000  0.934  0.066
  0.326  0.625  0.049  0.000  0.000
    occupations:
  0.589 -0.000 -0.000  0.000  0.000
 -0.000  0.041 -0.000  0.000  0.000
 -0.000 -0.000  0.041 -0.000  0.000
  0.000  0.000 -0.000  0.589 -0.000
  0.000  0.000  0.000 -0.000  0.041
atomic mag. moment =   3.68017
N of occupied +U levels =    6.280277
 --- exit write_ns ---

     RESET ns to initial values (iter <= mixing_fixed_ns)

 --- in v_hubbard ---
Hubbard energy   -0.0000
 -------

     total cpu time spent up to now is       42.5 secs

     total energy              =    -381.97893851 Ry
     estimated scf accuracy    <       0.00000088 Ry

     total magnetization       =     4.00 Bohr mag/cell
     absolute magnetization    =     4.01 Bohr mag/cell

     iteration # 14     ecut=   800.00 Ry     beta= 0.30
     Davidson diagonalization with overlap
     ethr =  1.92E-09,  avg # of iterations =  3.6
 --- enter write_ns ---
 LDA+U parameters:
U( 1)     =  5.00000000
atom    1   Tr[ns(na)] (up, down, total) =   4.98026  1.30025  6.28051
   spin  1
    eigenvalues: 
  0.996  0.996  0.996  0.997  0.997
    eigenvectors:
  0.000  0.000  0.000  0.000  1.000
  0.106  0.000  0.894  0.000  0.000
  0.430  0.512  0.058  0.000  0.000
  0.000  0.000  0.000  1.000  0.000
  0.464  0.488  0.048  0.000  0.000
    occupations:
  0.997 -0.000 -0.000  0.000  0.000
 -0.000  0.996 -0.000  0.000  0.000
 -0.000 -0.000  0.996  0.000  0.000
  0.000  0.000  0.000  0.997 -0.000
  0.000  0.000  0.000 -0.000  0.996
   spin  2
    eigenvalues: 
  0.041  0.041  0.041  0.589  0.589
    eigenvectors:
  0.000  0.000  0.000  0.066  0.934
  0.113  0.038  0.849  0.000  0.000
  0.361  0.502  0.137  0.000  0.000
  0.000  0.000  0.000  0.934  0.066
  0.526  0.459  0.014  0.000  0.000
    occupations:
  0.589 -0.000 -0.000  0.000  0.000
 -0.000  0.041 -0.000  0.000  0.000
 -0.000 -0.000  0.041 -0.000  0.000
  0.000  0.000 -0.000  0.589 -0.000
  0.000  0.000  0.000 -0.000  0.041
atomic mag. moment =   3.68001
N of occupied +U levels =    6.280511
 --- exit write_ns ---

     RESET ns to initial values (iter <= mixing_fixed_ns)

 --- in v_hubbard ---
Hubbard energy   -0.0000
 -------

     total cpu time spent up to now is       45.3 secs

     total energy              =    -381.97893874 Ry
     estimated scf accuracy    <       0.00000012 Ry

     total magnetization       =     4.00 Bohr mag/cell
     absolute magnetization    =     4.01 Bohr mag/cell

     iteration # 15     ecut=   800.00 Ry     beta= 0.30
     Davidson diagonalization with overlap
     ethr =  2.56E-10,  avg # of iterations =  2.2
 --- enter write_ns ---
 LDA+U parameters:
U( 1)     =  5.00000000
atom    1   Tr[ns(na)] (up, down, total) =   4.98027  1.30028  6.28055
   spin  1
    eigenvalues: 
  0.996  0.996  0.996  0.997  0.997
    eigenvectors:
  0.000  0.000  0.000  0.000  1.000
  0.115  0.001  0.884  0.000  0.000
  0.412  0.526  0.062  0.000  0.000
  0.000  0.000  0.000  1.000  0.000
  0.473  0.474  0.053  0.000  0.000
    occupations:
  0.997 -0.000 -0.000  0.000  0.000
 -0.000  0.996 -0.000  0.000  0.000
 -0.000 -0.000  0.996  0.000  0.000
  0.000  0.000  0.000  0.997 -0.000
  0.000  0.000  0.000 -0.000  0.996
   spin  2
    eigenvalues: 
  0.041  0.041  0.041  0.589  0.589
    eigenvectors:
  0.000  0.000  0.000  0.028  0.972
  0.062  0.058  0.879  0.000  0.000
  0.161  0.732  0.107  0.000  0.000
  0.000  0.000  0.000  0.972  0.028
  0.777  0.209  0.014  0.000  0.000
    occupations:
  0.589 -0.000 -0.000  0.000  0.000
 -0.000  0.041 -0.000  0.000  0.000
 -0.000 -0.000  0.041 -0.000  0.000
  0.000  0.000 -0.000  0.589 -0.000
  0.000  0.000  0.000 -0.000  0.041
atomic mag. moment =   3.67999
N of occupied +U levels =    6.280554
 --- exit write_ns ---

     RESET ns to initial values (iter <= mixing_fixed_ns)

 --- in v_hubbard ---
Hubbard energy   -0.0000
 -------

     total cpu time spent up to now is       47.8 secs

     total energy              =    -381.97893875 Ry
     estimated scf accuracy    <       0.00000002 Ry

     total magnetization       =     4.00 Bohr mag/cell
     absolute magnetization    =     4.01 Bohr mag/cell

     iteration # 16     ecut=   800.00 Ry     beta= 0.30
     Davidson diagonalization with overlap
     ethr =  4.37E-11,  avg # of iterations =  3.0
 --- enter write_ns ---
 LDA+U parameters:
U( 1)     =  5.00000000
atom    1   Tr[ns(na)] (up, down, total) =   4.98027  1.30027  6.28054
   spin  1
    eigenvalues: 
  0.996  0.996  0.996  0.997  0.997
    eigenvectors:
  0.000  0.000  0.000  0.023  0.977
  0.116  0.016  0.868  0.000  0.000
  0.347  0.552  0.101  0.000  0.000
  0.000  0.000  0.000  0.977  0.023
  0.537  0.432  0.032  0.000  0.000
    occupations:
  0.997 -0.000 -0.000  0.000  0.000
 -0.000  0.996 -0.000  0.000  0.000
 -0.000 -0.000  0.996  0.000  0.000
  0.000  0.000  0.000  0.997 -0.000
  0.000  0.000  0.000 -0.000  0.996
   spin  2
    eigenvalues: 
  0.041  0.041  0.041  0.589  0.589
    eigenvectors:
  0.000  0.000  0.000  0.581  0.419
  0.114  0.019  0.867  0.000  0.000
  0.418  0.470  0.112  0.000  0.000
  0.000  0.000  0.000  0.419  0.581
  0.468  0.511  0.020  0.000  0.000
    occupations:
  0.589 -0.000 -0.000  0.000  0.000
 -0.000  0.041 -0.000  0.000  0.000
 -0.000 -0.000  0.041 -0.000  0.000
  0.000  0.000 -0.000  0.589 -0.000
  0.000  0.000  0.000 -0.000  0.041
atomic mag. moment =   3.68000
N of occupied +U levels =    6.280539
 --- exit write_ns ---

     RESET ns to initial values (iter <= mixing_fixed_ns)

 --- in v_hubbard ---
Hubbard energy   -0.0000
 -------

     total cpu time spent up to now is       50.4 secs

     total energy              =    -381.97893876 Ry
     estimated scf accuracy    <          7.8E-09 Ry

     total magnetization       =     4.00 Bohr mag/cell
     absolute magnetization    =     4.01 Bohr mag/cell

     iteration # 17     ecut=   800.00 Ry     beta= 0.30
     Davidson diagonalization with overlap
     ethr =  1.69E-11,  avg # of iterations =  2.2
 --- enter write_ns ---
 LDA+U parameters:
U( 1)     =  5.00000000
atom    1   Tr[ns(na)] (up, down, total) =   4.98026  1.30025  6.28052
   spin  1
    eigenvalues: 
  0.996  0.996  0.996  0.997  0.997
    eigenvectors:
  0.000  0.000  0.000  0.001  0.999
  0.123  0.007  0.869  0.000  0.000
  0.381  0.530  0.089  0.000  0.000
  0.000  0.000  0.000  0.999  0.001
  0.496  0.463  0.041  0.000  0.000
    occupations:
  0.997 -0.000 -0.000  0.000  0.000
 -0.000  0.996 -0.000  0.000  0.000
 -0.000 -0.000  0.996  0.000  0.000
  0.000  0.000  0.000  0.997 -0.000
  0.000  0.000  0.000 -0.000  0.996
   spin  2
    eigenvalues: 
  0.041  0.041  0.041  0.589  0.589
    eigenvectors:
  0.000  0.000  0.000  0.990  0.010
  0.171  0.026  0.804  0.000  0.000
  0.535  0.279  0.186  0.000  0.000
  0.000  0.000  0.000  0.010  0.990
  0.295  0.695  0.010  0.000  0.000
    occupations:
  0.589 -0.000 -0.000  0.000  0.000
 -0.000  0.041 -0.000  0.000  0.000
 -0.000 -0.000  0.041 -0.000  0.000
  0.000  0.000 -0.000  0.589 -0.000
  0.000  0.000  0.000 -0.000  0.041
atomic mag. moment =   3.68001
N of occupied +U levels =    6.280516
 --- exit write_ns ---

     RESET ns to initial values (iter <= mixing_fixed_ns)

 --- in v_hubbard ---
Hubbard energy   -0.0000
 -------

     total cpu time spent up to now is       52.9 secs

     total energy              =    -381.97893876 Ry
     estimated scf accuracy    <          3.3E-09 Ry

     total magnetization       =     4.00 Bohr mag/cell
     absolute magnetization    =     4.01 Bohr mag/cell

     iteration # 18     ecut=   800.00 Ry     beta= 0.30
     Davidson diagonalization with overlap
     ethr =  7.17E-12,  avg # of iterations =  2.0
 --- enter write_ns ---
 LDA+U parameters:
U( 1)     =  5.00000000
atom    1   Tr[ns(na)] (up, down, total) =   4.98027  1.30026  6.28052
   spin  1
    eigenvalues: 
  0.996  0.996  0.996  0.997  0.997
    eigenvectors:
  0.000  0.000  0.000  0.003  0.997
  0.112  0.002  0.886  0.000  0.000
  0.424  0.506  0.070  0.000  0.000
  0.000  0.000  0.000  0.997  0.003
  0.464  0.492  0.044  0.000  0.000
    occupations:
  0.997 -0.000 -0.000  0.000  0.000
 -0.000  0.996 -0.000  0.000  0.000
 -0.000 -0.000  0.996  0.000  0.000
  0.000  0.000  0.000  0.997 -0.000
  0.000  0.000  0.000 -0.000  0.996
   spin  2
    eigenvalues: 
  0.041  0.041  0.041  0.589  0.589
    eigenvectors:
  0.000  0.000  0.000  0.992  0.008
  0.134  0.007  0.860  0.000  0.000
  0.663  0.260  0.077  0.000  0.000
  0.000  0.000  0.000  0.008  0.992
  0.203  0.734  0.064  0.000  0.000
    occupations:
  0.589 -0.000 -0.000  0.000  0.000
 -0.000  0.041 -0.000  0.000  0.000
 -0.000 -0.000  0.041 -0.000  0.000
  0.000  0.000 -0.000  0.589 -0.000
  0.000  0.000  0.000 -0.000  0.041
atomic mag. moment =   3.68001
N of occupied +U levels =    6.280523
 --- exit write_ns ---

     RESET ns to initial values (iter <= mixing_fixed_ns)

 --- in v_hubbard ---
Hubbard energy   -0.0000
 -------

     total cpu time spent up to now is       55.3 secs

     total energy              =    -381.97893876 Ry
     estimated scf accuracy    <          1.4E-09 Ry

     total magnetization       =     4.00 Bohr mag/cell
     absolute magnetization    =     4.01 Bohr mag/cell

     iteration # 19     ecut=   800.00 Ry     beta= 0.30
     Davidson diagonalization with overlap
     ethr =  3.12E-12,  avg # of iterations =  2.1
 --- enter write_ns ---
 LDA+U parameters:
U( 1)     =  5.00000000
atom    1   Tr[ns(na)] (up, down, total) =   4.98027  1.30026  6.28053
   spin  1
    eigenvalues: 
  0.996  0.996  0.996  0.997  0.997
    eigenvectors:
  0.000  0.000  0.000  0.004  0.996
  0.119  0.015  0.866  0.000  0.000
  0.375  0.522  0.103  0.000  0.000
  0.000  0.000  0.000  0.996  0.004
  0.506  0.463  0.031  0.000  0.000
    occupations:
  0.997 -0.000 -0.000  0.000  0.000
 -0.000  0.996 -0.000  0.000  0.000
 -0.000 -0.000  0.996  0.000  0.000
  0.000  0.000  0.000  0.997 -0.000
  0.000  0.000  0.000 -0.000  0.996
   spin  2
    eigenvalues: 
  0.041  0.041  0.041  0.589  0.589
    eigenvectors:
  0.000  0.000  0.000  0.008  0.992
  0.138  0.006  0.856  0.000  0.000
  0.576  0.358  0.066  0.000  0.000
  0.000  0.000  0.000  0.992  0.008
  0.285  0.637  0.078  0.000  0.000
    occupations:
  0.589 -0.000 -0.000  0.000  0.000
 -0.000  0.041 -0.000  0.000  0.000
 -0.000 -0.000  0.041 -0.000  0.000
  0.000  0.000 -0.000  0.589 -0.000
  0.000  0.000  0.000 -0.000  0.041
atomic mag. moment =   3.68000
N of occupied +U levels =    6.280529
 --- exit write_ns ---

     RESET ns to initial values (iter <= mixing_fixed_ns)

 --- in v_hubbard ---
Hubbard energy   -0.0000
 -------
 
     Magnetic moment per site:
     atom:    1    charge:   13.5088    magn:    3.4599    constr:    0.0000
     atom:    2    charge:    0.2560    magn:   -0.0004    constr:    0.0000
     atom:    3    charge:    0.2560    magn:   -0.0004    constr:    0.0000
     atom:    4    charge:    0.2560    magn:   -0.0004    constr:    0.0000
     atom:    5    charge:    5.8467    magn:    0.0004    constr:    0.0000
     atom:    6    charge:    5.8514    magn:    0.0525    constr:    0.0000
     atom:    7    charge:    5.8514    magn:    0.0525    constr:    0.0000
     atom:    8    charge:    5.8514    magn:    0.0525    constr:    0.0000

     total cpu time spent up to now is       57.9 secs

     End of self-consistent calculation

 ------ SPIN UP ------------


          k = 0.0000 0.0000 0.0000 (192431 PWs)   bands (ev):

   -78.7881 -44.4150 -44.4150 -44.4150  -9.9978  -8.7506  -8.7506  -8.3963
     3.2698   3.2698   3.2698   3.9790   3.9790   3.9790   5.6342   5.6342
     6.0566   6.0566   6.0566   6.0677   6.0677   6.0677   7.4364   7.4364
     7.4364  11.9887  16.8157  17.7531  17.7531  17.7545  17.7545  17.7545

     occupation numbers 
     1.0000   1.0000   1.0000   1.0000   1.0000   1.0000   1.0000   1.0000
     1.0000   1.0000   1.0000   1.0000   1.0000   1.0000   1.0000   1.0000
     1.0000   1.0000   1.0000   1.0000   1.0000   1.0000   1.0000   1.0000
     1.0000   0.0000   0.0000   0.0000   0.0000   0.0000   0.0000   0.0000

          k = 0.0000 0.0000-0.5000 (192616 PWs)   bands (ev):

   -78.7880 -44.4158 -44.4150 -44.4150  -9.3638  -9.1894  -8.7037  -8.3494
     2.5850   3.0055   3.0055   3.9952   4.3882   4.3882   4.7698   5.3000
     5.4150   5.4150   5.6379   5.6519   6.6427   6.6427   7.1262   7.1262
     8.0564  15.5412  15.6266  18.7712  19.0684  19.0684  19.4785  19.8757

     occupation numbers 
     1.0000   1.0000   1.0000   1.0000   1.0000   1.0000   1.0000   1.0000
     1.0000   1.0000   1.0000   1.0000   1.0000   1.0000   1.0000   1.0000
     1.0000   1.0000   1.0000   1.0000   1.0000   1.0000   1.0000   1.0000
     1.0000   0.0000   0.0000   0.0000   0.0000   0.0000   0.0000   0.0000

          k = 0.0000-0.5000-0.5000 (192516 PWs)   bands (ev):

   -78.7880 -44.4157 -44.4157 -44.4149  -8.9934  -8.7707  -8.7707  -8.7073
     2.2920   2.5138   2.6827   3.2113   3.2113   3.9513   3.9513   5.3317
     5.4676   6.2039   6.5570   6.5570   6.6692   6.7680   6.7882   6.7882
    10.1899  16.9074  16.9074  16.9550  17.1546  19.0761  19.3676  20.0727

     occupation numbers 
     1.0000   1.0000   1.0000   1.0000   1.0000   1.0000   1.0000   1.0000
     1.0000   1.0000   1.0000   1.0000   1.0000   1.0000   1.0000   1.0000
     1.0000   1.0000   1.0000   1.0000   1.0000   1.0000   1.0000   1.0000
     1.0000   0.0000   0.0000   0.0000   0.0000   0.0000   0.0000   0.0000

          k =-0.5000-0.5000-0.5000 (192672 PWs)   bands (ev):

   -78.7880 -44.4157 -44.4157 -44.4157  -8.7056  -8.7056  -8.7056  -8.6375
     1.7825   1.7825   1.7825   2.3753   2.6823   2.6823   5.1102   5.1102
     5.1102   6.7639   6.7639   6.7639   7.2928   7.2928   7.2928  10.1857
    10.1857  15.2994  15.2994  15.2994  15.4632  19.6409  20.4348  20.4348

     occupation numbers 
     1.0000   1.0000   1.0000   1.0000   1.0000   1.0000   1.0000   1.0000
     1.0000   1.0000   1.0000   1.0000   1.0000   1.0000   1.0000   1.0000
     1.0000   1.0000   1.0000   1.0000   1.0000   1.0000   1.0000   1.0000
     1.0000   0.0000   0.0000   0.0000   0.0000   0.0000   0.0000   0.0000

 ------ SPIN DOWN ----------


          k = 0.0000 0.0000 0.0000 (192431 PWs)   bands (ev):

   -74.1897 -39.8745 -39.8745 -39.8745  -9.9072  -8.6238  -8.3652  -8.3190
     3.3932   3.3932   3.3932   6.1361   6.1361   6.1361   6.1708   6.1708
     6.1708   7.5063   7.5063   7.5063   8.7358  12.3305  13.0622  13.0622
    13.0622  13.4260  17.7544  17.7569  17.9703  18.5950  18.5950  18.5950

     occupation numbers 
     1.0000   1.0000   1.0000   1.0000   1.0000   1.0000   1.0000   1.0000
     1.0000   1.0000   1.0000   1.0000   1.0000   1.0000   1.0000   1.0000
     1.0000   1.0000   1.0000   1.0000   1.0000   0.0047   0.0000   0.0000
     0.0000   0.0000   0.0000   0.0000   0.0000   0.0000   0.0000   0.0000

          k = 0.0000 0.0000-0.5000 (192616 PWs)   bands (ev):

   -74.1897 -39.8760 -39.8745 -39.8745  -9.1541  -9.1392  -8.5743  -8.2992
     4.4696   4.4696   4.5702   4.5702   4.6314   4.8650   5.5739   5.7252
     6.7385   6.7385   6.7576   6.7576   8.7518  13.2454  13.7654  14.0612
    14.0612  15.7076  16.2800  18.7985  19.3088  19.3088  19.9519  20.2527

     occupation numbers 
     1.0000   1.0000   1.0000   1.0000   1.0000   1.0000   1.0000   1.0000
     1.0000   1.0000   1.0000   1.0000   1.0000   1.0000   1.0000   1.0000
     1.0000   1.0000   1.0000   1.0000   1.0000   0.0000   0.0000   0.0000
     0.0000   0.0000   0.0000   0.0000   0.0000   0.0000   0.0000   0.0000

          k = 0.0000-0.5000-0.5000 (192516 PWs)   bands (ev):

   -74.1897 -39.8759 -39.8759 -39.8744  -8.8095  -8.7021  -8.6704  -8.6704
     3.3853   3.9516   3.9902   3.9902   5.4194   5.4194   5.4441   5.4662
     5.5553   6.8391   6.8391   6.8525  10.1746  14.0809  14.0809  14.4880
    14.7816  17.1983  17.1983  17.2787  17.3167  19.4037  19.4949  20.5009

     occupation numbers 
     1.0000   1.0000   1.0000   1.0000   1.0000   1.0000   1.0000   1.0000
     1.0000   1.0000   1.0000   1.0000   1.0000   1.0000   1.0000   1.0000
     1.0000   1.0000   1.0000   1.0000   1.0000   0.0000   0.0000   0.0000
     0.0000   0.0000   0.0000   0.0000   0.0000   0.0000   0.0000   0.0000

          k =-0.5000-0.5000-0.5000 (192672 PWs)   bands (ev):

   -74.1897 -39.8758 -39.8758 -39.8758  -8.6375  -8.6047  -8.6047  -8.6047
     2.7985   2.8537   2.8537   2.8537   4.1707   6.0763   6.7915   6.7915
     6.7915   6.8485   6.8485   6.8485  12.0536  14.5152  14.5152  14.5152
    15.1165  15.4790  15.6160  15.6160  15.6160  20.3476  20.5977  20.5977

     occupation numbers 
     1.0000   1.0000   1.0000   1.0000   1.0000   1.0000   1.0000   1.0000
     1.0000   1.0000   1.0000   1.0000   1.0000   1.0000   1.0000   1.0000
     1.0000   1.0000   1.0000   1.0000   0.9953   0.0000   0.0000   0.0000
     0.0000   0.0000   0.0000   0.0000   0.0000   0.0000   0.0000   0.0000

     the spin up/dw Fermi energies are    11.3222   12.1921 ev

!    total energy              =    -381.97893876 Ry
     estimated scf accuracy    <          9.9E-11 Ry
     smearing contrib. (-TS)   =      -0.00001418 Ry
     internal energy E=F+TS    =    -381.97892458 Ry

     The total energy is F=E-TS. E is the sum of the following terms:
     one-electron contribution =    -240.17500102 Ry
     hartree contribution      =     147.36090520 Ry
     xc contribution           =     -58.67684039 Ry
     ewald contribution        =    -230.48798836 Ry
     Hubbard energy            =      -0.00000000 Ry

     total magnetization       =     4.00 Bohr mag/cell
     absolute magnetization    =     4.01 Bohr mag/cell

     convergence has been achieved in  19 iterations

     Forces acting on atoms (cartesian axes, Ry/au):

     atom    1 type  1   force =     0.00000000    0.00000000   -0.00000000
     atom    2 type  2   force =     0.00000000    0.00000000   -0.00000000
     atom    3 type  2   force =     0.00000000    0.00000000   -0.00000000
     atom    4 type  2   force =     0.00000000    0.00000000    0.00000000
     atom    5 type  3   force =     0.00000000    0.00000000    0.00000000
     atom    6 type  3   force =     0.00000000    0.00000000    0.00000000
     atom    7 type  3   force =     0.00000000    0.00000000    0.00000000
     atom    8 type  3   force =     0.00000000    0.00000000    0.00000000
     The non-local contrib.  to forces
     atom    1 type  1   force =     0.00000000    0.00000000    0.00000000
     atom    2 type  2   force =     0.00000000    0.00000000    0.00000000
     atom    3 type  2   force =     0.00000000    0.00000000    0.00000000
     atom    4 type  2   force =     0.00000000    0.00000000    0.00000000
     atom    5 type  3   force =     0.00000000    0.00000000    0.00000000
     atom    6 type  3   force =     0.00000000    0.00000000    0.00000000
     atom    7 type  3   force =     0.00000000    0.00000000    0.00000000
     atom    8 type  3   force =     0.00000000    0.00000000    0.00000000
     The ionic contribution  to forces
     atom    1 type  1   force =    -0.00000000   -0.00000000   -0.00000000
     atom    2 type  2   force =    -0.00000000    0.00000000    0.00000000
     atom    3 type  2   force =     0.00000000   -0.00000000    0.00000000
     atom    4 type  2   force =     0.00000000    0.00000000   -0.00000000
     atom    5 type  3   force =     0.00000000    0.00000000    0.00000000
     atom    6 type  3   force =     0.00000000   -0.00000000   -0.00000000
     atom    7 type  3   force =    -0.00000000    0.00000000   -0.00000000
     atom    8 type  3   force =    -0.00000000   -0.00000000    0.00000000
     The local contribution  to forces
     atom    1 type  1   force =     0.00000000    0.00000000    0.00000000
     atom    2 type  2   force =    -0.00000000    0.00000000    0.00000000
     atom    3 type  2   force =     0.00000000   -0.00000000    0.00000000
     atom    4 type  2   force =     0.00000000    0.00000000    0.00000000
     atom    5 type  3   force =     0.00000000    0.00000000    0.00000000
     atom    6 type  3   force =     0.00000000    0.00000000    0.00000000
     atom    7 type  3   force =     0.00000000    0.00000000    0.00000000
     atom    8 type  3   force =     0.00000000    0.00000000    0.00000000
     The core correction contribution to forces
     atom    1 type  1   force =     0.00000000    0.00000000    0.00000000
     atom    2 type  2   force =     0.00000000    0.00000000    0.00000000
     atom    3 type  2   force =     0.00000000    0.00000000    0.00000000
     atom    4 type  2   force =     0.00000000    0.00000000    0.00000000
     atom    5 type  3   force =     0.00000000    0.00000000    0.00000000
     atom    6 type  3   force =     0.00000000    0.00000000    0.00000000
     atom    7 type  3   force =     0.00000000    0.00000000    0.00000000
     atom    8 type  3   force =     0.00000000    0.00000000    0.00000000
     The Hubbard contrib.    to forces
     atom    1 type  1   force =     0.00000000    0.00000000    0.00000000
     atom    2 type  2   force =     0.00000000    0.00000000    0.00000000
     atom    3 type  2   force =     0.00000000    0.00000000    0.00000000
     atom    4 type  2   force =     0.00000000    0.00000000    0.00000000
     atom    5 type  3   force =     0.00000000    0.00000000    0.00000000
     atom    6 type  3   force =     0.00000000    0.00000000    0.00000000
     atom    7 type  3   force =     0.00000000    0.00000000    0.00000000
     atom    8 type  3   force =     0.00000000    0.00000000    0.00000000
     The SCF correction term to forces
     atom    1 type  1   force =    -0.00000000   -0.00000000   -0.00000000
     atom    2 type  2   force =     0.00000000   -0.00000000   -0.00000000
     atom    3 type  2   force =    -0.00000000   -0.00000000   -0.00000000
     atom    4 type  2   force =     0.00000000   -0.00000000    0.00000000
     atom    5 type  3   force =     0.00000000   -0.00000000    0.00000000
     atom    6 type  3   force =     0.00000000   -0.00000000    0.00000000
     atom    7 type  3   force =    -0.00000000   -0.00000000    0.00000000
     atom    8 type  3   force =    -0.00000000   -0.00000000   -0.00000000

     Total force =     0.000000     Total SCF correction =     0.000000


     Computing stress (Cartesian axis) and pressure

          total   stress  (Ry/bohr**3)                   (kbar)     P=      221.06
   0.00150275   0.00000000   0.00000000          221.06        0.00        0.00
   0.00000000   0.00150275   0.00000000            0.00      221.06        0.00
   0.00000000   0.00000000   0.00150275            0.00        0.00      221.06

     kinetic stress (kbar)  48547.31      0.00      0.00
                                0.00  48547.31      0.00
                                0.00      0.00  48547.31

     local   stress (kbar) -16734.67      0.00      0.00
                                0.00 -16734.67     -0.00
                                0.00     -0.00 -16734.67

     nonloc. stress (kbar) -18083.23      0.00      0.00
                                0.00 -18083.23      0.00
                                0.00      0.00 -18083.23

     hartree stress (kbar)  14339.80      0.00     -0.00
                                0.00  14339.80      0.00
                               -0.00      0.00  14339.80

     exc-cor stress (kbar)  -5424.76      0.00      0.00
                                0.00  -5424.76     -0.00
                                0.00     -0.00  -5424.76

     corecor stress (kbar)      0.00      0.00      0.00
                                0.00      0.00      0.00
                                0.00      0.00      0.00

     ewald   stress (kbar) -22428.97      0.00     -0.00
                                0.00 -22428.97      0.00
                               -0.00      0.00 -22428.97

     hubbard stress (kbar)      5.58      0.00      0.00
                                0.00      5.58      0.00
                                0.00      0.00      5.58

     DFT-D   stress (kbar)      0.00      0.00      0.00
                                0.00      0.00      0.00
                                0.00      0.00      0.00

     XDM     stress (kbar)      0.00      0.00      0.00
                                0.00      0.00      0.00
                                0.00      0.00      0.00

     dft-nl  stress (kbar)      0.00      0.00      0.00
                                0.00      0.00      0.00
                                0.00      0.00      0.00

     TS-vdW  stress (kbar)      0.00      0.00      0.00
                                0.00      0.00      0.00
                                0.00      0.00      0.00



     Writing output data file pwscf_output/pwscf.save/
 
     init_run     :      2.11s CPU      2.42s WALL (       1 calls)
     electrons    :     52.99s CPU     55.46s WALL (       1 calls)
     forces       :      0.26s CPU      0.26s WALL (       1 calls)
     stress       :      0.96s CPU      0.98s WALL (       1 calls)

     Called by init_run:
     wfcinit      :      1.34s CPU      1.49s WALL (       1 calls)
     wfcinit:atom :      0.02s CPU      0.02s WALL (       8 calls)
     wfcinit:wfcr :      1.18s CPU      1.33s WALL (       8 calls)
     potinit      :      0.16s CPU      0.23s WALL (       1 calls)
     hinit0       :      0.09s CPU      0.15s WALL (       1 calls)

     Called by electrons:
     c_bands      :     42.85s CPU     43.29s WALL (      19 calls)
     sum_band     :      7.23s CPU      7.34s WALL (      19 calls)
     v_of_rho     :      2.05s CPU      2.20s WALL (      20 calls)
     v_h          :      0.08s CPU      0.09s WALL (      20 calls)
     v_xc         :      1.97s CPU      2.11s WALL (      20 calls)
     mix_rho      :      0.80s CPU      0.84s WALL (      19 calls)

     Called by c_bands:
     init_us_2    :      0.38s CPU      0.39s WALL (     352 calls)
     cegterg      :     41.95s CPU     42.28s WALL (     152 calls)

     Called by sum_band:
     sum_band:wei :      0.00s CPU      0.00s WALL (      19 calls)
     sum_band:loo :      6.59s CPU      6.66s WALL (      19 calls)
     sum_band:buf :      0.22s CPU      0.22s WALL (     152 calls)
     sum_band:ini :      0.16s CPU      0.17s WALL (     152 calls)

     Called by *egterg:
     cdiaghg      :      2.81s CPU      2.91s WALL (     710 calls)
     cegterg:over :      3.27s CPU      3.29s WALL (     558 calls)
     cegterg:upda :      2.63s CPU      2.65s WALL (     558 calls)
     cegterg:last :      2.57s CPU      2.58s WALL (     329 calls)
     cdiaghg:chol :      0.20s CPU      0.24s WALL (     710 calls)
     cdiaghg:inve :      0.04s CPU      0.05s WALL (     710 calls)
     cdiaghg:para :      0.19s CPU      0.19s WALL (    1420 calls)
     h_psi        :     30.61s CPU     30.92s WALL (     718 calls)
     g_psi        :      0.14s CPU      0.14s WALL (     558 calls)

     Called by h_psi:
     h_psi:calbec :      0.85s CPU      0.86s WALL (     718 calls)
     vloc_psi     :     27.60s CPU     27.87s WALL (     718 calls)
     add_vuspsi   :      1.03s CPU      1.05s WALL (     718 calls)
     vhpsi        :      0.66s CPU      0.67s WALL (     718 calls)

     General routines
     calbec       :      1.45s CPU      1.47s WALL (    1740 calls)
     fft          :      0.93s CPU      1.09s WALL (     389 calls)
     ffts         :      0.08s CPU      0.09s WALL (      38 calls)
     fftw         :     28.64s CPU     28.92s WALL (   30570 calls)
     davcio       :      0.00s CPU      0.00s WALL (       8 calls)
 
     Parallel routines
     fft_scatt_xy :      4.16s CPU      4.20s WALL (   30997 calls)
     fft_scatt_yz :     15.17s CPU     15.45s WALL (   30997 calls)

     Hubbard U routines
     new_ns       :      0.27s CPU      0.28s WALL (      19 calls)
     new_ns       :      0.27s CPU      0.28s WALL (      19 calls)
     vhpsi        :      0.66s CPU      0.67s WALL (     718 calls)
     force_hub    :      0.10s CPU      0.10s WALL (       1 calls)
     stres_hub    :      0.34s CPU      0.34s WALL (       1 calls)
 
     PWSCF        :     56.93s CPU   1m37.13s WALL

 
   This run was terminated on:  11:26:49  22Nov2021            

=------------------------------------------------------------------------------=
   JOB DONE.
=------------------------------------------------------------------------------=
