  <PP_INFO>

############################################################
#    Opium Parameter File                                  #
############################################################
#-----------------------------------------------------------
#Command line   : opium la la.log ae ps nl ke tc rpt upf plot wp 
 
#Opium version  : 3.7 
#Compile Host   : BaconTini-2.local 
#Compile OS     : Darwin 11.2.0 i386 
#Compile Date   : Sun Nov  6 11:44:24 EST 2011 
#-----------------------------------------------------------
#Execution Host : mac93512 
#Execution Date : Mon Nov 10 09:10:27 2014
 
#-----------------------------------------------------------
############################################################
[Atom]
La
13
100 2.00 - # nlm occ eigen(- means auto-generate)
200 2.00 -
210 6.00 -
300 2.00 -
310 6.00  -
320 10.0  -
400 2.00  -
410 6.00  -
420 10.0  -
500 2.00  -
510 6.00  -
520 0.00  -
600 0.00  -

[Pseudo]
4 1.5 1.7 2.0 2.0
opt

[Optinfo]
7.47 10
7.07 10
7.07 10
7.47 10

[KBdesign]
p        

[Relativity]
srl

[Configs]
8

500 2.00  -
510 6.00  -
520 1.00 -
600 2.00 - 

500 2.00  -
510 6.00  -
520 2.00 -
600 1.00 - 

500 2.00  -
510 6.00  -
520 2.00 -
600 0.00 - 

500 2.00  -
510 6.00  -
520 1.00 -
600 1.00 - 

500 2.00  -
510 6.00  -
520 0.00 -
600 2.00 - 

500 2.00  -
510 6.00  -
520 1.00 -
600 0.00 - 

500 2.00  -
510 6.00  -
520 0.00 -
600 1.00 - 

500 2.00  -
510 6.00  -
520 0.00 -
600 0.00 - 
############################################################
  </PP_INFO>



<PP_HEADER>
   0         Version Number
   La        Element
   NC        Norm - Conserving pseudopotential
    F      Nonlinear Core Correction
SLA  PZ   NOGX NOGC    PZ   Exchange-Correlation functional
 11          Z valence
 0          Total energy
 0.000000   0.000000     Suggested cutoff for wfc and rho
 2           Max angular momentum component
 1180           Number of points in mesh
 3  2     Number of Wavefuncitons, Number of Projectors
 Wavefunctions         nl  l   occ
                       S  0  2.000000
                       P  1  6.000000
                       D  2  0.000000
</PP_HEADER>
<PP_MESH>
  <PP_R>
 2.5984142030594456e-05  2.6324141082523228e-05  2.6668588976948941e-05  2.7017543926385583e-05 
 2.7371064905050158e-05  2.7729211658829489e-05  2.8092044715377341e-05  2.8459625394343879e-05 
 2.8832015817738721e-05  2.9209278920429750e-05  2.9591478460779241e-05  2.9978679031419184e-05 
 3.0370946070167593e-05  3.0768345871087651e-05  3.1170945595691587e-05  3.1578813284291036e-05 
 3.1992017867496160e-05  3.2410629177864990e-05  3.2834717961705310e-05  3.3264355891030966e-05 
 3.3699615575674585e-05  3.4140570575558841e-05  3.4587295413128231e-05  3.5039865585943573e-05 
 3.5498357579441186e-05  3.5962848879859247e-05  3.6433417987333068e-05  3.6910144429161804e-05 
 3.7393108773248776e-05  3.7882392641717643e-05  3.8378078724706730e-05  3.8880250794343830e-05 
 3.9388993718903967e-05  3.9904393477152170e-05  4.0426537172874340e-05  4.0955513049597791e-05 
 4.1491410505504711e-05  4.2034320108540624e-05  4.2584333611720630e-05  4.3141543968635855e-05 
 4.3706045349162866e-05  4.4277933155378465e-05  4.4857304037683079e-05  4.5444255911134793e-05 
 4.6038887971997204e-05  4.6641300714503899e-05  4.7251595947842153e-05  4.7869876813358958e-05 
 4.8496247801992153e-05  4.9130814771929652e-05  4.9773684966499745e-05  5.0424967032295315e-05 
 5.1084771037535645e-05  5.1753208490668012e-05  5.2430392359212955e-05  5.3116437088855999e-05 
 5.3811458622789319e-05  5.4515574421306374e-05  5.5228903481653018e-05  5.5951566358138143e-05 
 5.6683685182507932e-05  5.7425383684586225e-05  5.8176787213185182e-05  5.8938022757289546e-05 
 5.9709218967518082e-05  6.0490506177865849e-05  6.1282016427730934e-05  6.2083883484229441e-05 
 6.2896242864802476e-05  6.3719231860118755e-05  6.4552989557277321e-05  6.5397656863313441e-05 
 6.6253376529012197e-05  6.7120293173033818e-05  6.7998553306354451e-05  6.8888305357026999e-05 
 6.9789699695265789e-05  7.0702888658859256e-05  7.1628026578915785e-05  7.2565269805945767e-05 
 7.3514776736285331e-05  7.4476707838865588e-05  7.5451225682332394e-05  7.6438494962520733e-05 
 7.7438682530288756e-05  7.8451957419715948e-05  7.9478490876670312e-05  8.0518456387749414e-05 
 8.1572029709599687e-05  8.2639388898620209e-05  8.3720714341054331e-05  8.4816188783475488e-05 
 8.5925997363671782e-05  8.7050327641934744e-05  8.8189369632757459e-05  8.9343315836947255e-05 
 9.0512361274159233e-05  9.1696703515854727e-05  9.2896542718691425e-05  9.4112081658350339e-05 
 9.5343525763805361e-05  9.6591083152041307e-05  9.7854964663226051e-05  9.9135383896343160e-05 
 1.0043255724529056e-04  1.0174670393545172e-04  1.0307804606074486e-04  1.0442680862115799e-04 
 1.0579321956077402e-04  1.0717750980629389e-04  1.0857991330606388e-04  1.1000066706961330e-04 
 1.1144001120770981e-04  1.1289818897293832e-04  1.1437544680081189e-04  1.1587203435141941e-04 
 1.1738820455161896e-04  1.1892421363778302e-04  1.2048032119910301e-04  1.2205679022146046e-04 
 1.2365388713187232e-04  1.2527188184351766e-04  1.2691104780135375e-04  1.2857166202832898e-04 
 1.3025400517219986e-04  1.3195836155296199e-04  1.3368501921090021e-04  1.3543426995526838e-04 
 1.3720640941360563e-04  1.3900173708169831e-04  1.4082055637419552e-04  1.4266317467588637e-04 
 1.4452990339364964e-04  1.4642105800908157e-04  1.4833695813181331e-04  1.5027792755352562e-04 
 1.5224429430267051e-04  1.5423639069990868e-04  1.5625455341427267e-04  1.5829912352006463e-04 
 1.6037044655449869e-04  1.6246887257609781e-04  1.6459475622385375e-04  1.6674845677716301e-04 
 1.6893033821654502e-04  1.7114076928515618e-04  1.7338012355110814e-04  1.7564877947060171e-04 
 1.7794712045188704e-04  1.8027553492005994e-04  1.8263441638270757e-04  1.8502416349641145e-04 
 1.8744518013412160e-04  1.8989787545341209e-04  1.9238266396562955e-04  1.9489996560594650e-04 
 1.9745020580433167e-04  2.0003381555744836e-04  2.0265123150149409e-04  2.0530289598599306e-04 
 2.0798925714855465e-04  2.1071076899060871e-04  2.1346789145413418e-04  2.1626109049938965e-04 
 2.1909083818366204e-04  2.2195761274104465e-04  2.2486189866326108e-04  2.2780418678154467e-04 
 2.3078497434959034e-04  2.3380476512759168e-04  2.3686406946737753e-04  2.3996340439866274e-04 
 2.4310329371642747e-04  2.4628426806943963e-04  2.4950686504993590e-04  2.5277162928447609e-04 
 2.5607911252598629e-04  2.5942987374700643e-04  2.6282447923415826e-04  2.6626350268384809e-04 
 2.6974752529922440e-04  2.7327713588840149e-04  2.7685293096397004e-04  2.8047551484380791e-04 
 2.8414549975321334e-04  2.8786350592837078e-04  2.9163016172117310e-04  2.9544610370541431e-04 
 2.9931197678437205e-04  3.0322843429979779e-04  3.0719613814233322e-04  3.1121575886337122e-04 
 3.1528797578838085e-04  3.1941347713171445e-04  3.2359296011291846e-04  3.2782713107456401e-04 
 3.3211670560162154e-04  3.3646240864239552e-04  3.4086497463104316e-04  3.4532514761169506e-04 
 3.4984368136420070e-04  3.5442133953151857e-04  3.5905889574877430e-04  3.6375713377400655e-04 
 3.6851684762062375e-04  3.7333884169159475e-04  3.7822393091539399e-04  3.8317294088372752e-04 
 3.8818670799105901e-04  3.9326607957596314e-04  3.9841191406432672e-04  4.0362508111442611e-04 
 4.0890646176390056e-04  4.1425694857865004e-04  4.1967744580368105e-04  4.2516886951592570e-04 
 4.3073214777906158e-04  4.3636822080035626e-04  4.4207804108956496e-04  4.4786257361990617e-04 
 4.5372279599114533e-04  4.5965969859481119e-04  4.6567428478157410e-04  4.7176757103081519e-04 
 4.7794058712241269e-04  4.8419437631077867e-04  4.9052999550117072e-04  4.9694851542831145e-04 
 5.0345102083734501e-04  5.1003861066716211e-04  5.1671239823612323e-04  5.2347351143021176e-04 
 5.3032309289364977e-04  5.3726230022200692e-04  5.4429230615783773e-04  5.5141429878887761e-04 
 5.5862948174883250e-04  5.6593907442079473e-04  5.7334431214332393e-04  5.8084644641922037e-04 
 5.8844674512703230e-04  5.9614649273533125e-04  6.0394699051978832e-04  6.1184955678309557e-04 
 6.1985552707776034e-04  6.2796625443181772e-04  6.3618310957749423e-04  6.4450748118286656e-04 
 6.5294077608654894e-04  6.6148441953545222e-04  6.7013985542565418e-04  6.7890854654642052e-04 
 6.8779197482742125e-04  6.9679164158917913e-04  7.0590906779679748e-04  7.1514579431700511e-04 
 7.2450338217856824e-04  7.3398341283610797e-04  7.4358748843736844e-04  7.5331723209398529e-04 
 7.6317428815579353e-04  7.7316032248872881e-04  7.8327702275636101e-04  7.9352609870511441e-04 
 8.0390928245321772e-04  8.1442832878343729e-04  8.2508501543963951e-04  8.3588114342723321e-04 
 8.4681853731754446e-04  8.5789904555617208e-04  8.6912454077538138e-04  8.8049692011058216e-04 
 8.9201810552094990e-04  9.0369004411423968e-04  9.1551470847585456e-04  9.2749409700221535e-04 
 9.3963023423849525e-04  9.5192517122077264e-04  9.6438098582266008e-04  9.7699978310647148e-04 
 9.8978369567898181e-04  1.0027348840518434e-03  1.0158555370067153e-03  1.0291478719651756e-03 
 1.0426141353634699e-03  1.0562566030321628e-03  1.0700775805807616e-03  1.0840794037873661e-03 
 1.0982644389934248e-03  1.1126350835036489e-03  1.1271937659911647e-03  1.1419429469079626e-03 
 1.1568851189007229e-03  1.1720228072320759e-03  1.1873585702073786e-03  1.2028949996070752e-03 
 1.2186347211247113e-03  1.2345803948106860e-03  1.2507347155218044e-03  1.2671004133767165e-03 
 1.2836802542173099e-03  1.3004770400761494e-03  1.3174936096500230e-03  1.3347328387796897e-03 
 1.3521976409359038e-03  1.3698909677117969e-03  1.3878158093217061e-03  1.4059751951065267e-03 
 1.4243721940456775e-03  1.4430099152757652e-03  1.4618915086160394e-03  1.4810201651007113e-03 
 1.5003991175182565e-03  1.5200316409577576e-03  1.5399210533624029e-03  1.5600707160902273e-03 
 1.5804840344821902e-03  1.6011644584376854e-03  1.6221154829975833e-03  1.6433406489349007e-03 
 1.6648435433531965e-03  1.6866278002928075e-03  1.7086971013450052e-03  1.7310551762741949e-03 
 1.7537058036482536e-03  1.7766528114771184e-03  1.7999000778597283e-03  1.8234515316394328e-03 
 1.8473111530679770e-03  1.8714829744781677e-03  1.8959710809653553e-03  1.9207796110778208e-03 
 1.9459127575161999e-03  1.9713747678420592e-03  1.9971699451957472e-03  2.0233026490236307e-03 
 2.0497772958148553e-03  2.0765983598477426e-03  2.1037703739459472e-03  2.1312979302445258e-03 
 2.1591856809660111e-03  2.1874383392066501e-03  2.2160606797329303e-03  2.2450575397885237e-03 
 2.2744338199117962e-03  2.3041944847640057e-03  2.3343445639683485e-03  2.3648891529599657e-03 
 2.3958334138470981e-03  2.4271825762834857e-03  2.4589419383521946e-03  2.4911168674610048e-03 
 2.5237128012495151e-03  2.5567352485081169e-03  2.5901897901089944e-03  2.6240820799493048e-03 
 2.6584178459066934e-03  2.6932028908073316e-03  2.7284430934065998e-03  2.7641444093826121e-03 
 2.8003128723427416e-03  2.8369545948433122e-03  2.8740757694226378e-03  2.9116826696475744e-03 
 2.9497816511737701e-03  2.9883791528197774e-03  3.0274816976552424e-03  3.0670958941033111e-03 
 3.1072284370574680e-03  3.1478861090129921e-03  3.1890757812132122e-03  3.2308044148107663e-03 
 3.2730790620440512e-03  3.3159068674290687e-03  3.3592950689668578e-03  3.4032509993667495e-03 
 3.4477820872856014e-03  3.4928958585832589e-03  3.5385999375944473e-03  3.5849020484172993e-03 
 3.6318100162187473e-03  3.6793317685569959e-03  3.7274753367212989e-03  3.7762488570892571e-03 
 3.8256605725019003e-03  3.8757188336567389e-03  3.9264321005190511e-03  3.9778089437516395e-03 
 4.0298580461632918e-03  4.0825882041761975e-03  4.1360083293125642e-03  4.1901274497006882e-03 
 4.2449547116007172e-03  4.3004993809504085e-03  4.3567708449310854e-03  4.4137786135540922e-03 
 4.4715323212680099e-03  4.5300417285869003e-03  4.5893167237398610e-03  4.6493673243421492e-03 
 4.7102036790882011e-03  4.7718360694667551e-03  4.8342749114984804e-03  4.8975307574962903e-03 
 4.9616142978487149e-03  5.0265363628265967e-03  5.0923079244134398e-03  5.1589400981596947e-03 
 5.2264441450613148e-03  5.2948314734628972e-03  5.3641136409857022e-03  5.4343023564809422e-03 
 5.5054094820085929e-03  5.5774470348421102e-03  5.6504271894993801e-03  5.7243622798002379e-03 
 5.7992648009509186e-03  5.8751474116557709e-03  5.9520229362566178e-03  6.0299043669000754e-03 
 6.1088048657332965e-03  6.1887377671283736e-03  6.2697165799358891e-03  6.3517549897679458e-03 
 6.4348668613110642e-03  6.5190662406693503e-03  6.6043673577383180e-03  6.6907846286097823e-03 
 6.7783326580081911e-03  6.8670262417588898e-03  6.9568803692886330e-03  7.0479102261588348e-03 
 7.1401311966319651e-03  7.2335588662715286e-03  7.3282090245760621e-03  7.4240976676475962e-03 
 7.5212410008950398e-03  7.6196554417729077e-03  7.7193576225559543e-03  7.8203643931500297e-03 
 7.9226928239397709e-03  8.0263602086735348e-03  8.1313840673860778e-03  8.2377821493594891e-03 
 8.3455724361228608e-03  8.4547731444912129e-03  8.5654027296441573e-03  8.6774798882448979e-03 
 8.7910235615999924e-03  8.9060529388604853e-03  9.0225874602649116e-03  9.1406468204247547e-03 
 9.2602509716528721e-03  9.3814201273354943e-03  9.5041747653483288e-03  9.6285356315173581e-03 
 9.7545237431249567e-03  9.8821603924618556e-03  1.0011467150425576e-02  1.0142465870165982e-02 
 1.0275178690778495e-02  1.0409628041045666e-02  1.0545836643227698e-02  1.0683827516902557e-02 
 1.0823623982856304e-02  1.0965249667024427e-02  1.1108728504484633e-02  1.1254084743501945e-02 
 1.1401342949626718e-02  1.1550528009846277e-02  1.1701665136790875e-02  1.1854779872994686e-02 
 1.2009898095212565e-02  1.2167046018793246e-02  1.2326250202109848e-02  1.2487537551048275e-02 
 1.2650935323554376e-02  1.2816471134240609e-02  1.2984172959052968e-02  1.3154069139998996e-02 
 1.3326188389937642e-02  1.3500559797431814e-02  1.3677212831664379e-02  1.3856177347418588e-02 
 1.4037483590123551e-02  1.4221162200965812e-02  1.4407244222067782e-02  1.4595761101733913e-02 
 1.4786744699765562e-02  1.4980227292845353e-02  1.5176241579992041e-02  1.5374820688086656e-02 
 1.5575998177471117e-02  1.5779808047619956e-02  1.5986284742886311e-02  1.6195463158323115e-02 
 1.6407378645580447e-02  1.6622067018880034e-02  1.6839564561067933e-02  1.7059908029746464e-02 
 1.7283134663486240e-02  1.7509282188119674e-02  1.7738388823116687e-02  1.7970493288043888e-02 
 1.8205634809108282e-02  1.8443853125786586e-02  1.8685188497541302e-02  1.8929681710624660e-02 
 1.9177374084971603e-02  1.9428307481182898e-02  1.9682524307599761e-02  1.9940067527470923e-02 
 2.0200980666213519e-02  2.0465307818768989e-02  2.0733093657055241e-02  2.1004383437516306e-02 
 2.1279223008770779e-02  2.1557658819360361e-02  2.1839737925599709e-02  2.2125507999529174e-02 
 2.2415017336971405e-02  2.2708314865693500e-02  2.3005450153675878e-02  2.3306473417489426e-02 
 2.3611435530782189e-02  2.3920388032877160e-02  2.4233383137482540e-02  2.4550473741515932e-02 
 2.4871713434044145e-02  2.5197156505339796e-02  2.5526857956056515e-02  2.5860873506524204e-02 
 2.6199259606165867e-02  2.6542073443037752e-02  2.6889372953494212e-02  2.7241216831979144e-02 
 2.7597664540945390e-02  2.7958776320904166e-02  2.8324613200605770e-02  2.8695237007353592e-02 
 2.9070710377453100e-02  2.9451096766797497e-02  2.9836460461591944e-02  3.0226866589218061e-02 
 3.0622381129240654e-02  3.1023070924558284e-02  3.1429003692700082e-02  3.1840248037270008e-02 
 3.2256873459541105e-02  3.2678950370201347e-02  3.3106550101253213e-02  3.3539744918068985e-02 
 3.3978608031603748e-02  3.4423213610768257e-02  3.4873636794963532e-02  3.5329953706779785e-02 
 3.5792241464861194e-02  3.6260578196939161e-02  3.6735043053036098e-02  3.7215716218841954e-02 
 3.7702678929265793e-02  3.8196013482164698e-02  3.8695803252252338e-02  3.9202132705189331e-02 
 3.9715087411858363e-02  4.0234754062825756e-02  4.0761220482992369e-02  4.1294575646436252e-02 
 4.1834909691449478e-02  4.2382313935771673e-02  4.2936880892023035e-02  4.3498704283339115e-02 
 4.4067879059210176e-02  4.4644501411528037e-02  4.5228668790842697e-02  4.5820479922831607e-02 
 4.6420034824984649e-02  4.7027434823507290e-02  4.7642782570444950e-02  4.8266182061031448e-02 
 4.8897738651264483e-02  4.9537559075710884e-02  5.0185751465545270e-02  5.0842425366824269e-02 
 5.1507691759000156e-02  5.2181663073676610e-02  5.2864453213609906e-02  5.3556177571958831e-02 
 5.4256953051786287e-02  5.4966898085816347e-02  5.5686132656449394e-02  5.6414778316039776e-02 
 5.7152958207438181e-02  5.7900797084803224e-02  5.8658421334685094e-02  5.9425958997385238e-02 
 6.0203539788595474e-02  6.0991295121320233e-02  6.1789358128085739e-02  6.2597863683439475e-02 
 6.3416948426744682e-02  6.4246750785272505e-02  6.5087410997596490e-02  6.5939071137293429e-02 
 6.6801875136953917e-02  6.7675968812507495e-02  6.8561499887865723e-02  6.9458618019888077e-02 
 7.0367474823673948e-02  7.1288223898186440e-02  7.2221020852210577e-02  7.3166023330651739e-02 
 7.4123391041178016e-02  7.5093285781211092e-02  7.6075871465270478e-02  7.7071314152675416e-02 
 7.8079782075609366e-02  7.9101445667551507e-02  8.0136477592080563e-02  8.1185052772055247e-02 
 8.2247348419176830e-02  8.3323544063937757e-02  8.4413821585963583e-02  8.5518365244750510e-02 
 8.6637361710805785e-02  8.7771000097195462e-02  8.8919471991505059e-02  9.0082971488218158e-02 
 9.1261695221518960e-02  9.2455842398523849e-02  9.3665614832947941e-02  9.4891216979212031e-02 
 9.6132855966995875e-02  9.7390741636243658e-02  9.8665086572627334e-02  9.9956106143474249e-02 
 1.0126401853416460e-01  1.0258904478500538e-01  1.0393140882858687e-01  1.0529133752762702e-01 
 1.0666906071331290e-01  1.0806481122414203e-01  1.0947882494527274e-01  1.1091134084838938e-01 
 1.1236260103208912e-01  1.1383285076279714e-01  1.1532233851621729e-01  1.1683131601932499e-01 
 1.1836003829290981e-01  1.1990876369467444e-01  1.2147775396289795e-01  1.2306727426066999e-01 
 1.2467759322070410e-01  1.2630898299073723e-01  1.2796171927952341e-01  1.2963608140342911e-01 
 1.3133235233363860e-01  1.3305081874397598e-01  1.3479177105935491e-01  1.3655550350486031e-01 
 1.3834231415547335e-01  1.4015250498644677e-01  1.4198638192433938e-01  1.4384425489871858e-01 
 1.4572643789453887e-01  1.4763324900520636e-01  1.4956501048633714e-01  1.5152204881021930e-01 
 1.5350469472098754e-01  1.5551328329051964e-01  1.5754815397506453e-01  1.5960965067261101e-01 
 1.6169812178100756e-01  1.6381392025684230e-01  1.6595740367509373e-01  1.6812893428956063e-01 
 1.7032887909408556e-01  1.7255760988457663e-01  1.7481550332184198e-01  1.7710294099524657e-01 
 1.7942030948720145e-01  1.8176800043849736e-01  1.8414641061449283e-01  1.8655594197216838e-01 
 1.8899700172805844e-01  1.9147000242707171e-01  1.9397536201221224e-01  1.9651350389521299e-01 
 1.9908485702809317e-01  2.0168985597565231e-01  2.0432894098891274e-01  2.0700255807952292e-01 
 2.0971115909513499e-01  2.1245520179576666e-01  2.1523514993116574e-01  2.1805147331918365e-01 
 2.2090464792517614e-01  2.2379515594244237e-01  2.2672348587371699e-01  2.2969013261372814e-01 
 2.3269559753283572e-01  2.3574038856176441e-01  2.3882502027744493e-01  2.4195001398997901e-01 
 2.4511589783074181e-01  2.4832320684163758e-01  2.5157248306552288e-01  2.5486427563781300e-01 
 2.5819914087928764e-01  2.6157764239010978e-01  2.6500035114507636e-01  2.6846784559011250e-01 
 2.7198071174003285e-01  2.7553954327757763e-01  2.7914494165374709e-01  2.8279751618944804e-01 
 2.8649788417847039e-01  2.9024667099181162e-01  2.9404451018336564e-01  2.9789204359699495e-01 
 3.0178992147500411e-01  3.0573880256803176e-01  3.0973935424638133e-01  3.1379225261280808e-01 
 3.1789818261678238e-01  3.2205783817024736e-01  3.2627192226489188e-01  3.3054114709095789e-01 
 3.3486623415760280e-01  3.3924791441483382e-01  3.4368692837704379e-01  3.4818402624815759e-01 
 3.5273996804841901e-01  3.5735552374283586e-01  3.6203147337130598e-01  3.6676860718044574e-01 
 3.7156772575714381e-01  3.7642964016386193e-01  3.8135517207570668e-01  3.8634515391929453e-01 
 3.9140042901343347e-01  3.9652185171164667e-01  4.0171028754655941e-01  4.0696661337617690e-01 
 4.1229171753207483e-01  4.1768649996952989e-01  4.2315187241961483e-01  4.2868875854328037e-01 
 4.3429809408746034e-01  4.3998082704321267e-01  4.4573791780593219e-01  4.5157033933766033e-01 
 4.5747907733151755e-01  4.6346513037828829e-01  4.6952951013518479e-01  4.7567324149681983e-01 
 4.8189736276841610e-01  4.8820292584128266e-01  4.9459099637058651e-01  5.0106265395545146e-01 
 5.0761899232141239e-01  5.1426111950525799e-01  5.2099015804229132e-01  5.2780724515604061e-01 
 5.3471353295045454e-01  5.4171018860460618e-01  5.4879839456995461e-01  5.5597934877017852e-01 
 5.6325426480362939e-01  5.7062437214843165e-01  5.7809091637026822e-01  5.8565515933288359e-01 
 5.9331837941134224e-01  6.0108187170807648e-01  6.0894694827176254e-01  6.1691493831905897e-01 
 6.2498718845924872e-01  6.3316506292181796e-01  6.4144994378701503e-01  6.4984323121942511e-01 
 6.5834634370460099e-01  6.6696071828879111e-01  6.7568781082180407e-01  6.8452909620304714e-01 
 6.9348606863079398e-01  7.0256024185470334e-01  7.1175314943164747e-01  7.2106634498488686e-01 
 7.3050140246663642e-01  7.4005991642406688e-01  7.4974350226878728e-01  7.5955379654985300e-01 
 7.6949245723034720e-01  7.7956116396757980e-01  7.8976161839695402e-01  8.0009554441954633e-01 
 8.1056468849345020e-01  8.2117081992893193e-01  8.3191573118744766e-01  8.4280123818457409e-01 
 8.5382918059690360e-01  8.6500142217294840e-01  8.7631985104812782e-01  8.8778638006386013e-01 
 8.9940294709084068e-01  9.1117151535654572e-01  9.2309407377702235e-01  9.3517263729302047e-01 
 9.4740924721052255e-01  9.5980597154572878e-01  9.7236490537455733e-01  9.8508817118671665e-01 
 9.9797791924441170e-01  1.0110363279457431e+00  1.0242656041928615e+00  1.0376679837649398e+00 
 1.0512457316960244e+00  1.0650011426578323e+00  1.0789365413475571e+00  1.0930542828807410e+00 
 1.1073567531893069e+00  1.1218463694247778e+00  1.1365255803667842e+00  1.1513968668369134e+00 
 1.1664627421179743e+00  1.1817257523787472e+00  1.1971884771042935e+00  1.2128535295318954e+00 
 1.2287235570926964e+00  1.2448012418591272e+00  1.2610893009981794e+00  1.2775904872306150e+00 
 1.2943075892961813e+00  1.3112434324249160e+00  1.3284008788146169e+00  1.3457828281145596e+00 
 1.3633922179155500e+00  1.3812320242463707e+00  1.3993052620767552e+00  1.4176149858269123e+00 
 1.4361642898837350e+00  1.4549563091237581e+00  1.4739942194429598e+00  1.4932812382934961e+00 
 1.5128206252274581e+00  1.5326156824477428e+00  1.5526697553661348e+00  1.5729862331686877e+00 
 1.5935685493885057e+00  1.6144201824860176e+00  1.6355446564368459e+00  1.6569455413273664e+00 
 1.6786264539580620e+00  1.7005910584547701e+00  1.7228430668879309e+00  1.7453862398999263e+00 
 1.7682243873406525e+00  1.7913613689113845e+00  1.8148010948170763e+00  1.8385475264271938e+00 
 1.8626046769451987e+00  1.8869766120867866e+00  1.9116674507670042e+00  1.9366813657963546e+00 
 1.9620225845860138e+00  1.9876953898622716e+00  2.0137041203903236e+00  2.0400531717075316e+00 
 2.0667469968662826e+00  2.0937901071865612e+00  2.1211870730183779e+00  2.1489425245141653e+00 
 2.1770611524112899e+00  2.2055477088247848e+00  2.2344070080504879e+00  2.2636439273786566e+00 
 2.2932634079182432e+00  2.3232704554319570e+00  2.3536701411822478e+00  2.3844676027883605e+00 
 2.4156680450946082e+00  2.4472767410500005e+00  2.4792990325993851e+00  2.5117403315862514e+00 
 2.5446061206673400e+00  2.5779019542392305e+00  2.6116334593770434e+00  2.6458063367854310e+00 
 2.6804263617620108e+00  2.7154993851734024e+00  2.7510313344440442e+00  2.7870282145579228e+00 
 2.8234961090734592e+00  2.8604411811516219e+00  2.8978696745975263e+00  2.9357879149156481e+00 
 2.9742023103788502e+00  3.0131193531113949e+00  3.0525456201861312e+00  3.0924877747360329e+00 
 3.1329525670802849e+00  3.1739468358651037e+00  3.2154775092194838e+00  3.2575516059260705e+00 
 3.3001762366073457e+00  3.3433586049273467e+00  3.3871060088090976e+00  3.4314258416679766e+00 
 3.4763255936612292e+00  3.5218128529537958e+00  3.5678953070007671e+00  3.6145807438465574e+00 
 3.6618770534411094e+00  3.7097922289733152e+00  3.7583343682218810e+00  3.8075116749238762e+00 
 3.8573324601611798e+00  3.9078051437650747e+00  3.9589382557392203e+00  4.0107404377012417e+00 
 4.0632204443431847e+00  4.1163871449110800e+00  4.1702495247038645e+00  4.2248166865919217e+00 
 4.2800978525554845e+00  4.3361023652431774e+00  4.3928396895509465e+00  4.4503194142216245e+00 
 4.5085512534654981e+00  4.5675450486019953e+00  4.6273107697229046e+00  4.6878585173773448e+00 
 4.7491985242787784e+00  4.8113411570343665e+00  4.8742969178969524e+00  4.9380764465399594e+00 
 5.0026905218555324e+00  5.0681500637761854e+00  5.1344661351203049e+00  5.2016499434617858e+00 
 5.2697128430241413e+00  5.3386663365993954e+00  5.4085220774920764e+00  5.4792918714886589e+00 
 5.5509876788527777e+00  5.6236216163465000e+00  5.6972059592781488e+00  5.7717531435768175e+00 
 5.8472757678940814e+00  5.9237865957332003e+00  6.0012985576061846e+00  6.0798247532190750e+00 
 6.1593784536858305e+00  6.2399731037711748e+00  6.3216223241627976e+00  6.4043399137732751e+00 
 6.4881398520721296e+00  6.5730363014483846e+00  6.6590436096040468e+00  6.7461763119788998e+00 
 6.8344491342070288e+00  6.9238769946054903e+00  7.0144750066955490e+00  7.1062584817568561e+00 
 7.1992429314151618e+00  7.2934440702637726e+00  7.3888778185193607e+00  7.4855603047125214e+00 
 7.5835078684135366e+00  7.6827370629937954e+00  7.7832646584233585e+00  7.8851076441051182e+00 
 7.9882832317460490e+00  8.0928088582660340e+00  8.1987021887447327e+00  8.3059811194070328e+00 
 8.4146637806475528e+00  8.5247685400947155e+00  8.6363140057149277e+00  8.7493190289573697e+00 
 8.8638027079399464e+00  8.9797843906768566e+00  9.0972836783485462e+00  9.2163204286142939e+00 
 9.3369147589682093e+00  9.4590870501391517e+00  9.5828579495351107e+00  9.7082483747326691e+00 
 9.8352795170121290e+00  9.9639728449388780e+00  1.0094350107991643e+01  1.0226433340238188e+01 
 1.0360244864059133e+01  1.0495807293920491e+01  1.0633143540195556e+01  1.0772276813036827e+01 
 1.0913230626298560e+01  1.1056028801510683e+01  1.1200695471904698e+01  1.1347255086492185e+01 
 1.1495732414196853e+01  1.1646152548040476e+01  1.1798540909383687e+01  1.1952923252222256e+01 
 1.2109325667539562e+01  1.2267774587716048e+01  1.2428296790996347e+01  1.2590919406014876e+01 
 1.2755669916380626e+01  1.2922576165321974e+01  1.3091666360392242e+01  1.3262969078236848e+01 
 1.3436513269422827e+01  1.3612328263331538e+01  1.3790443773115411e+01  1.3970889900719532e+01 
 1.4153697141968967e+01  1.4338896391722541e+01  1.4526518949094275e+01  1.4716596522742925e+01 
 1.4909161236230844e+01  1.5104245633452932e+01  1.5301882684136638e+01  1.5502105789413925e+01 
 1.5704948787466135e+01  1.5910445959242724e+01  1.6118632034254823e+01  1.6329542196444617e+01 
 1.6543212090131501e+01  1.6759677826036061e+01  1.6978975987382874e+01  1.7201143636083163e+01 
 1.7426218318998334e+01  1.7654238074285534e+01  1.7885241437826050e+01  1.8119267449738164e+01 
 1.8356355660974899e+01  1.8596546140008233e+01  1.8839879479600807e+01  1.9086396803666176e+01 
 1.9336139774218829e+01  1.9589150598415213e+01  1.9845472035686797e+01  2.0105147404966562e+01 
 2.0368220592009955e+01  2.0634736056811736e+01  2.0904738841119791e+01  2.1178274576047290e+01 
 2.1455389489784487e+01  2.1736130415411356e+01  2.2020544798812526e+01  2.2308680706695760e+01 
 2.2600586834715205e+01  2.2896312515701304e+01  2.3195907727997991e+01  2.3499423103909216e+01 
 2.3806909938255895e+01  2.4118420197044898e+01  2.4434006526251366e+01  2.4753722260716074e+01 
 2.5077621433159099e+01  2.5405758783311491e+01  2.5738189767166425e+01  2.6074970566351393e+01 
 2.6416158097623025e+01  2.6761810022486166e+01  2.7111984756938810e+01  2.7466741481344517e+01 
 2.7826140150434078e+01  2.8190241503438013e+01  2.8559107074351484e+01  2.8932799202333957e+01 
 2.9311381042244488e+01  2.9694916575315080e+01  3.0083470619963670e+01  3.0477108842748610e+01 
 3.0875897769466441e+01  3.1279904796394931e+01  3.1689198201683215e+01  3.2103847156890936e+01 
 3.2523921738678439e+01  3.2949492940649854e+01  3.3380632685351223e+01  3.3817413836425551e+01 
 3.4259910210926954e+01  3.4708196591795897e+01  3.5162348740497727e+01  3.5622443409826552e+01 
 3.6088558356876433e+01  3.6560772356182895e+01  3.7039165213035716e+01  3.7523817776966347e+01 
 3.8014811955411595e+01  3.8512230727556236e+01  3.9016158158356681e+01  3.9526679412748109e+01 
 4.0043880770037610e+01  4.0567849638485562e+01  4.1098674570077819e+01  4.1636445275491248e+01 
 4.2181252639254993e+01  4.2733188735110247e+01  4.3292346841570847e+01  4.3858821457687647e+01 
 4.4432708319019042e+01  4.5014104413810578e+01  4.5603107999385877e+01  4.6199818618752893e+01 
 4.6804337117426513e+01  4.7416765660471825e+01  4.8037207749770246e+01  4.8665768241511586e+01 
 4.9302553363914974e+01  4.9947670735181703e+01  5.0601229381682970e+01  5.1263339756385570e+01 
 5.1934113757518702e+01  5.2613664747485110e+01  5.3302107572019324e+01  5.3999558579597569e+01 
 5.4706135641099742e+01  5.5421958169731354e+01  5.6147147141203071e+01  5.6881825114177502e+01 
 5.7626116250980473e+01  5.8380146338585376e+01  5.9144042809872118e+01  5.9917934765162059e+01 
 6.0701952994038010e+01  6.1496229997446250e+01  6.2300900010091247e+01  6.3116099023119915e+01 
 6.3941964807106118e+01  6.4778636935332571e+01  6.5626256807380742e+01  6.6484967673025963e+01 
 6.7354914656448827e+01  6.8236244780759591e+01  6.9129106992847426e+01  7.0033652188550747e+01 
 7.0950033238161069e+01  7.1878405012256579e+01  7.2818924407876452e+01  7.3771750375037612e+01 
 7.4737043943595793e+01  7.5714968250462093e+01  7.6705688567171421e+01  7.7709372327815814e+01 