
     Program PWSCF v.6.4.1 starts on 11Oct2021 at 11:44:22 

     This program is part of the open-source Quantum ESPRESSO suite
     for quantum simulation of materials; please cite
         "P. Giannozzi et al., J. Phys.:Condens. Matter 21 395502 (2009);
         "P. Giannozzi et al., J. Phys.:Condens. Matter 29 465901 (2017);
          URL http://www.quantum-espresso.org", 
     in publications or presentations arising from this work. More details at
     http://www.quantum-espresso.org/quote

     Parallel version (MPI & OpenMP), running on      36 processor cores
     Number of MPI processes:                36
     Threads/MPI process:                     1

     MPI processes distributed on     1 nodes
     R & G space division:  proc/nbgrp/npool/nimage =      36
     Reading input from scf.in

     Current dimensions of program PWSCF are:
     Max number of different atomic species (ntypx) = 10
     Max number of k-points (npk) =  40000
     Max angular momentum in pseudopotentials (lmaxx) =  3

     IMPORTANT: XC functional enforced from input :
     Exchange-correlation      = LDA ( 1  1  0  0 0 0)
     Any further DFT definition will be discarded
     Please, verify this is what you really want


     Subspace diagonalization in iterative solution of the eigenvalue problem:
     one sub-group per band group will be used
     scalapack distributed-memory algorithm (size of sub-group:  4*  4 procs)

 
     Parallelization info
     --------------------
     sticks:   dense  smooth     PW     G-vecs:    dense   smooth      PW
     Min        1125    1125    289               160176   160176   20844
     Max        1126    1126    290               160182   160182   20847
     Sum       40533   40533  10413              5766487  5766487  750431
 


     bravais-lattice index     =            0
     lattice parameter (alat)  =      18.3955  a.u.
     unit-cell volume          =    6518.7163 (a.u.)^3
     number of atoms/cell      =           80
     number of atomic types    =            5
     number of electrons       =       734.00
     number of Kohn-Sham states=          440
     kinetic-energy cutoff     =     350.0000  Ry
     charge density cutoff     =    1400.0000  Ry
     convergence threshold     =      1.0E-05
     mixing beta               =       0.2000
     number of iterations used =            8  plain     mixing
     Exchange-correlation      = LDA ( 1  1  0  0 0 0)

     celldm(1)=  18.395514  celldm(2)=   0.000000  celldm(3)=   0.000000
     celldm(4)=   0.000000  celldm(5)=   0.000000  celldm(6)=   0.000000

     crystal axes: (cart. coord. in units of alat)
               a(1) = (   1.000000   0.000000   0.000000 )  
               a(2) = (   0.333333   1.075078   0.000000 )  
               a(3) = (   0.166667  -0.082572   0.974062 )  

     reciprocal axes: (cart. coord. in units 2 pi/alat)
               b(1) = (  1.000000 -0.310055 -0.197388 )  
               b(2) = (  0.000000  0.930165  0.078850 )  
               b(3) = (  0.000000  0.000000  1.026629 )  


     PseudoPot. # 1 for Co read from file:
     ./Co.opt.upf
     MD5 check sum: cbea422ea0772e228e39f0fc3ccfb1ba
     Pseudo is Norm-conserving, Zval = 17.0
     Generated by new atomic code, or converted to UPF format
     Using radial grid of 1161 points,  2 beta functions with: 
                l(1) =   0
                l(2) =   2

     PseudoPot. # 2 for Co read from file:
     ./Co.opt.upf
     MD5 check sum: cbea422ea0772e228e39f0fc3ccfb1ba
     Pseudo is Norm-conserving, Zval = 17.0
     Generated by new atomic code, or converted to UPF format
     Using radial grid of 1161 points,  2 beta functions with: 
                l(1) =   0
                l(2) =   2

     PseudoPot. # 3 for La read from file:
     ./La.ropt1.upf
     MD5 check sum: afd03827907f86c9752dba134992df7c
     Pseudo is Norm-conserving, Zval = 11.0
     Generated by new atomic code, or converted to UPF format
     Using radial grid of 1180 points,  2 beta functions with: 
                l(1) =   0
                l(2) =   2

     PseudoPot. # 4 for Mn read from file:
     ./Mn.opt.upf
     MD5 check sum: 5ce47c60d595b590a57a34cb5b635794
     Pseudo is Norm-conserving, Zval = 15.0
     Generated by new atomic code, or converted to UPF format
     Using radial grid of 1159 points,  2 beta functions with: 
                l(1) =   0
                l(2) =   2

     PseudoPot. # 5 for O  read from file:
     ./O.opt.upf
     MD5 check sum: 0b670aeee1f35195f09134313df81f8f
     Pseudo is Norm-conserving, Zval =  6.0
     Generated by new atomic code, or converted to UPF format
     Using radial grid of 1130 points,  1 beta functions with: 
                l(1) =   1

     atomic species   valence    mass     pseudopotential
        Co1           17.00    58.93300     Co( 1.00)
        Co2           17.00    58.93300     Co( 1.00)
        La            11.00   138.92000     La( 1.00)
        Mn            15.00    54.93800     Mn( 1.00)
        O              6.00    15.99900     O ( 1.00)

     Starting magnetic structure 
     atomic species   magnetization
        Co1          0.500
        Co2         -0.500
        La           0.000
        Mn          -0.500
        O            0.000


     Simplified LDA+U calculation (l_max = 2) with parameters (eV):
     atomic species    L          U    alpha       J0     beta
        Co1            2     6.0000   0.0000   0.0000   0.0000
        Co2            2     6.0000   0.0000   0.0000   0.0000
        Mn             2     3.0000   0.0000   0.0000   0.0000



     No symmetry found



   Cartesian axes

     site n.     atom                  positions (alat units)
         1           La  tau(   1) = (   1.0000000   0.2868835   0.1826366  )
         2           La  tau(   2) = (   1.0000000  -0.0231717   0.6696675  )
         3           La  tau(   3) = (   0.6666667   0.3593395   0.9131830  )
         4           La  tau(   4) = (   1.1666667   0.8244222   0.1826366  )
         5           La  tau(   5) = (   1.1666667   0.5143671   0.6696675  )
         6           La  tau(   6) = (   0.8333333   0.8968783   0.9131830  )
         7           La  tau(   7) = (   0.6666667   0.6693947   0.4261521  )
         8           La  tau(   8) = (   0.5000000   0.1318558   0.4261521  )
         9           La  tau(   9) = (   1.0000000   0.8606501   0.5479098  )
        10           La  tau(  10) = (   0.8333333   0.6331666   0.0608789  )
        11           La  tau(  11) = (   0.5000000   1.0156777   0.3043943  )
        12           La  tau(  12) = (   0.8333333   0.3231114   0.5479098  )
        13           La  tau(  13) = (   0.6666667   0.0956278   0.0608789  )
        14           La  tau(  14) = (   0.3333333   0.4781390   0.3043943  )
        15           La  tau(  15) = (   0.3333333   0.1680839   0.7914253  )
        16           La  tau(  16) = (   0.5000000   0.7056226   0.7914253  )
        17           Co1 tau(  17) = (   1.0000000   0.5737668   0.3652732  )
        18           Co1 tau(  18) = (   1.0000000   0.2637117   0.8523041  )
        19           Co1 tau(  19) = (   0.5000000   0.7287944   0.1217577  )
        20           Co1 tau(  20) = (   0.8333333   0.0362280   0.3652732  )
        21           Co1 tau(  21) = (   1.1666666   0.8012504   0.8523041  )
        22           Co1 tau(  22) = (   0.3333333   0.1912556   0.1217577  )
        23           Co1 tau(  23) = (   0.6666666   0.9562780   0.6087887  )
        24           Co1 tau(  24) = (   0.5000000   0.4187392   0.6087887  )
        25           Co2 tau(  25) = (   0.0000000   0.0000000   0.0000000  )
        26           Co2 tau(  26) = (   0.3333333   0.7650224   0.4870309  )
        27           Co2 tau(  27) = (   0.6666667   0.0724561   0.7305464  )
        28           Co2 tau(  28) = (   0.1666667   0.5375388   0.0000000  )
        29           Co2 tau(  29) = (   0.1666667   0.2274836   0.4870309  )
        30           Co2 tau(  30) = (   0.8333333   0.6099948   0.7305464  )
        31           Co2 tau(  31) = (   0.6666667   0.3825112   0.2435155  )
        32           Mn  tau(  32) = (   0.8333333   0.9200500   0.2435155  )
        33           O   tau(  33) = (   1.0491919   0.5662381   0.1660092  )
        34           O   tau(  34) = (   1.0491919   0.2561830   0.6530401  )
        35           O   tau(  35) = (   0.7158585   0.6386942   0.8965556  )
        36           O   tau(  36) = (   0.8825252   0.0286993   0.1660092  )
        37           O   tau(  37) = (   1.2158585   0.7937217   0.6530401  )
        38           O   tau(  38) = (   0.5491919   0.1011554   0.8965556  )
        39           O   tau(  39) = (   0.7158585   0.9487493   0.4095247  )
        40           O   tau(  40) = (   0.5491919   0.4112105   0.4095247  )
        41           O   tau(  41) = (   0.9508081   0.5812955   0.5645372  )
        42           O   tau(  42) = (   0.7841414   0.3538119   0.0775063  )
        43           O   tau(  43) = (   0.4508081   0.7363230   0.3210217  )
        44           O   tau(  44) = (   0.7841414   0.0437567   0.5645372  )
        45           O   tau(  45) = (   0.9508081   0.8913506   0.0775063  )
        46           O   tau(  46) = (   0.2841414   0.1987843   0.3210217  )
        47           O   tau(  47) = (   0.6174748   0.9638067   0.8080527  )
        48           O   tau(  48) = (   0.4508081   0.4262679   0.8080527  )
        49           O   tau(  49) = (   1.1174742   0.4112111   0.4095238  )
        50           O   tau(  50) = (   1.1174742   0.1011560   0.8965548  )
        51           O   tau(  51) = (   0.6174741   0.5662387   0.1660084  )
        52           O   tau(  52) = (   1.2841409   0.9487499   0.4095238  )
        53           O   tau(  53) = (   1.2841409   0.6386947   0.8965548  )
        54           O   tau(  54) = (   0.4508075   0.0286999   0.1660084  )
        55           O   tau(  55) = (   0.7841408   0.7937223   0.6530393  )
        56           O   tau(  56) = (   0.6174741   0.2561835   0.6530393  )
        57           O   tau(  57) = (   0.8825258   0.7363225   0.3210225  )
        58           O   tau(  58) = (   0.8825258   0.4262673   0.8080535  )
        59           O   tau(  59) = (   0.3825258   0.8913500   0.0775071  )
        60           O   tau(  60) = (   0.7158592   0.1987837   0.3210225  )
        61           O   tau(  61) = (   1.0491925   0.9638061   0.8080535  )
        62           O   tau(  62) = (   0.2158592   0.3538113   0.0775071  )
        63           O   tau(  63) = (   0.2158592   0.0437561   0.5645380  )
        64           O   tau(  64) = (   0.3825258   0.5812949   0.5645380  )
        65           O   tau(  65) = (   0.8333339   0.4569677   0.3376499  )
        66           O   tau(  66) = (   0.8333339   0.1469125   0.8246808  )
        67           O   tau(  67) = (   0.3333339   0.6119952   0.0941344  )
        68           O   tau(  68) = (   1.0000005   0.9945064   0.3376499  )
        69           O   tau(  69) = (   1.0000005   0.6844513   0.8246808  )
        70           O   tau(  70) = (   0.1666672   0.0744564   0.0941344  )
        71           O   tau(  71) = (   0.5000005   0.8394788   0.5811654  )
        72           O   tau(  72) = (   0.3333339   0.3019401   0.5811654  )
        73           O   tau(  73) = (   1.1666660   0.6905658   0.3928965  )
        74           O   tau(  74) = (   1.1666660   0.3805107   0.8799274  )
        75           O   tau(  75) = (   0.6666661   0.8455934   0.1493811  )
        76           O   tau(  76) = (   0.9999994   0.1530271   0.3928965  )
        77           O   tau(  77) = (   1.3333327   0.9180494   0.8799274  )
        78           O   tau(  78) = (   0.4999994   0.3080546   0.1493811  )
        79           O   tau(  79) = (   0.4999994  -0.0020005   0.6364120  )
        80           O   tau(  80) = (   0.6666660   0.5355382   0.6364120  )

     number of k points=     8  Methfessel-Paxton smearing, width (Ry)=  0.0100
                       cart. coord. in units 2pi/alat
        k(    1) = (   0.5000000   0.3100552   0.4540455), wk =   0.1250000
        k(    2) = (   0.0000000   0.4650827   0.5527396), wk =   0.1250000
        k(    3) = (   0.5000000  -0.1550276   0.4146203), wk =   0.1250000
        k(    4) = (   0.0000000   0.0000000   0.5133144), wk =   0.1250000
        k(    5) = (   0.5000000   0.3100552  -0.0592689), wk =   0.1250000
        k(    6) = (   0.0000000   0.4650827   0.0394252), wk =   0.1250000
        k(    7) = (   0.5000000  -0.1550276  -0.0986941), wk =   0.1250000
        k(    8) = (   0.0000000   0.0000000   0.0000000), wk =   0.1250000

     Dense  grid:  5766487 G-vectors     FFT dimensions: ( 225, 250, 225)

     Estimated max dynamical RAM per process >       3.98 GB

     Estimated total dynamical RAM >     143.20 GB
     Generating pointlists ...
     new r_m :   0.0847 (alat units)  1.5585 (a.u.) for type    1
     new r_m :   0.0847 (alat units)  1.5585 (a.u.) for type    2
     new r_m :   0.1028 (alat units)  1.8914 (a.u.) for type    3
     new r_m :   0.0847 (alat units)  1.5585 (a.u.) for type    4
     new r_m :   0.0847 (alat units)  1.5585 (a.u.) for type    5

     Initial potential from superposition of free atoms

     starting charge  621.99994, renormalised to  734.00000
     Number of +U iterations with fixed ns =  0
     Starting occupations:
 --- enter write_ns ---
 LDA+U parameters:
U( 1)     =  6.00000000
alpha( 1) =  0.00000000
U( 2)     =  6.00000000
alpha( 2) =  0.00000000
U( 4)     =  3.00000000
alpha( 4) =  0.00000000
atom   17   Tr[ns(na)] (up, down, total) =   5.00000  2.00000  7.00000
   spin  1
    eigenvalues: 
  1.000  1.000  1.000  1.000  1.000
    eigenvectors:
  1.000  0.000  0.000  0.000  0.000
  0.000  1.000  0.000  0.000  0.000
  0.000  0.000  1.000  0.000  0.000
  0.000  0.000  0.000  1.000  0.000
  0.000  0.000  0.000  0.000  1.000
    occupations:
  1.000  0.000  0.000  0.000  0.000
  0.000  1.000  0.000  0.000  0.000
  0.000  0.000  1.000  0.000  0.000
  0.000  0.000  0.000  1.000  0.000
  0.000  0.000  0.000  0.000  1.000
   spin  2
    eigenvalues: 
  0.400  0.400  0.400  0.400  0.400
    eigenvectors:
  1.000  0.000  0.000  0.000  0.000
  0.000  1.000  0.000  0.000  0.000
  0.000  0.000  1.000  0.000  0.000
  0.000  0.000  0.000  1.000  0.000
  0.000  0.000  0.000  0.000  1.000
    occupations:
  0.400  0.000  0.000  0.000  0.000
  0.000  0.400  0.000  0.000  0.000
  0.000  0.000  0.400  0.000  0.000
  0.000  0.000  0.000  0.400  0.000
  0.000  0.000  0.000  0.000  0.400
atomic mag. moment =     3.000000
atom   18   Tr[ns(na)] (up, down, total) =   5.00000  2.00000  7.00000
   spin  1
    eigenvalues: 
  1.000  1.000  1.000  1.000  1.000
    eigenvectors:
  1.000  0.000  0.000  0.000  0.000
  0.000  1.000  0.000  0.000  0.000
  0.000  0.000  1.000  0.000  0.000
  0.000  0.000  0.000  1.000  0.000
  0.000  0.000  0.000  0.000  1.000
    occupations:
  1.000  0.000  0.000  0.000  0.000
  0.000  1.000  0.000  0.000  0.000
  0.000  0.000  1.000  0.000  0.000
  0.000  0.000  0.000  1.000  0.000
  0.000  0.000  0.000  0.000  1.000
   spin  2
    eigenvalues: 
  0.400  0.400  0.400  0.400  0.400
    eigenvectors:
  1.000  0.000  0.000  0.000  0.000
  0.000  1.000  0.000  0.000  0.000
  0.000  0.000  1.000  0.000  0.000
  0.000  0.000  0.000  1.000  0.000
  0.000  0.000  0.000  0.000  1.000
    occupations:
  0.400  0.000  0.000  0.000  0.000
  0.000  0.400  0.000  0.000  0.000
  0.000  0.000  0.400  0.000  0.000
  0.000  0.000  0.000  0.400  0.000
  0.000  0.000  0.000  0.000  0.400
atomic mag. moment =     3.000000
atom   19   Tr[ns(na)] (up, down, total) =   5.00000  2.00000  7.00000
   spin  1
    eigenvalues: 
  1.000  1.000  1.000  1.000  1.000
    eigenvectors:
  1.000  0.000  0.000  0.000  0.000
  0.000  1.000  0.000  0.000  0.000
  0.000  0.000  1.000  0.000  0.000
  0.000  0.000  0.000  1.000  0.000
  0.000  0.000  0.000  0.000  1.000
    occupations:
  1.000  0.000  0.000  0.000  0.000
  0.000  1.000  0.000  0.000  0.000
  0.000  0.000  1.000  0.000  0.000
  0.000  0.000  0.000  1.000  0.000
  0.000  0.000  0.000  0.000  1.000
   spin  2
    eigenvalues: 
  0.400  0.400  0.400  0.400  0.400
    eigenvectors:
  1.000  0.000  0.000  0.000  0.000
  0.000  1.000  0.000  0.000  0.000
  0.000  0.000  1.000  0.000  0.000
  0.000  0.000  0.000  1.000  0.000
  0.000  0.000  0.000  0.000  1.000
    occupations:
  0.400  0.000  0.000  0.000  0.000
  0.000  0.400  0.000  0.000  0.000
  0.000  0.000  0.400  0.000  0.000
  0.000  0.000  0.000  0.400  0.000
  0.000  0.000  0.000  0.000  0.400
atomic mag. moment =     3.000000
atom   20   Tr[ns(na)] (up, down, total) =   5.00000  2.00000  7.00000
   spin  1
    eigenvalues: 
  1.000  1.000  1.000  1.000  1.000
    eigenvectors:
  1.000  0.000  0.000  0.000  0.000
  0.000  1.000  0.000  0.000  0.000
  0.000  0.000  1.000  0.000  0.000
  0.000  0.000  0.000  1.000  0.000
  0.000  0.000  0.000  0.000  1.000
    occupations:
  1.000  0.000  0.000  0.000  0.000
  0.000  1.000  0.000  0.000  0.000
  0.000  0.000  1.000  0.000  0.000
  0.000  0.000  0.000  1.000  0.000
  0.000  0.000  0.000  0.000  1.000
   spin  2
    eigenvalues: 
  0.400  0.400  0.400  0.400  0.400
    eigenvectors:
  1.000  0.000  0.000  0.000  0.000
  0.000  1.000  0.000  0.000  0.000
  0.000  0.000  1.000  0.000  0.000
  0.000  0.000  0.000  1.000  0.000
  0.000  0.000  0.000  0.000  1.000
    occupations:
  0.400  0.000  0.000  0.000  0.000
  0.000  0.400  0.000  0.000  0.000
  0.000  0.000  0.400  0.000  0.000
  0.000  0.000  0.000  0.400  0.000
  0.000  0.000  0.000  0.000  0.400
atomic mag. moment =     3.000000
atom   21   Tr[ns(na)] (up, down, total) =   5.00000  2.00000  7.00000
   spin  1
    eigenvalues: 
  1.000  1.000  1.000  1.000  1.000
    eigenvectors:
  1.000  0.000  0.000  0.000  0.000
  0.000  1.000  0.000  0.000  0.000
  0.000  0.000  1.000  0.000  0.000
  0.000  0.000  0.000  1.000  0.000
  0.000  0.000  0.000  0.000  1.000
    occupations:
  1.000  0.000  0.000  0.000  0.000
  0.000  1.000  0.000  0.000  0.000
  0.000  0.000  1.000  0.000  0.000
  0.000  0.000  0.000  1.000  0.000
  0.000  0.000  0.000  0.000  1.000
   spin  2
    eigenvalues: 
  0.400  0.400  0.400  0.400  0.400
    eigenvectors:
  1.000  0.000  0.000  0.000  0.000
  0.000  1.000  0.000  0.000  0.000
  0.000  0.000  1.000  0.000  0.000
  0.000  0.000  0.000  1.000  0.000
  0.000  0.000  0.000  0.000  1.000
    occupations:
  0.400  0.000  0.000  0.000  0.000
  0.000  0.400  0.000  0.000  0.000
  0.000  0.000  0.400  0.000  0.000
  0.000  0.000  0.000  0.400  0.000
  0.000  0.000  0.000  0.000  0.400
atomic mag. moment =     3.000000
atom   22   Tr[ns(na)] (up, down, total) =   5.00000  2.00000  7.00000
   spin  1
    eigenvalues: 
  1.000  1.000  1.000  1.000  1.000
    eigenvectors:
  1.000  0.000  0.000  0.000  0.000
  0.000  1.000  0.000  0.000  0.000
  0.000  0.000  1.000  0.000  0.000
  0.000  0.000  0.000  1.000  0.000
  0.000  0.000  0.000  0.000  1.000
    occupations:
  1.000  0.000  0.000  0.000  0.000
  0.000  1.000  0.000  0.000  0.000
  0.000  0.000  1.000  0.000  0.000
  0.000  0.000  0.000  1.000  0.000
  0.000  0.000  0.000  0.000  1.000
   spin  2
    eigenvalues: 
  0.400  0.400  0.400  0.400  0.400
    eigenvectors:
  1.000  0.000  0.000  0.000  0.000
  0.000  1.000  0.000  0.000  0.000
  0.000  0.000  1.000  0.000  0.000
  0.000  0.000  0.000  1.000  0.000
  0.000  0.000  0.000  0.000  1.000
    occupations:
  0.400  0.000  0.000  0.000  0.000
  0.000  0.400  0.000  0.000  0.000
  0.000  0.000  0.400  0.000  0.000
  0.000  0.000  0.000  0.400  0.000
  0.000  0.000  0.000  0.000  0.400
atomic mag. moment =     3.000000
atom   23   Tr[ns(na)] (up, down, total) =   5.00000  2.00000  7.00000
   spin  1
    eigenvalues: 
  1.000  1.000  1.000  1.000  1.000
    eigenvectors:
  1.000  0.000  0.000  0.000  0.000
  0.000  1.000  0.000  0.000  0.000
  0.000  0.000  1.000  0.000  0.000
  0.000  0.000  0.000  1.000  0.000
  0.000  0.000  0.000  0.000  1.000
    occupations:
  1.000  0.000  0.000  0.000  0.000
  0.000  1.000  0.000  0.000  0.000
  0.000  0.000  1.000  0.000  0.000
  0.000  0.000  0.000  1.000  0.000
  0.000  0.000  0.000  0.000  1.000
   spin  2
    eigenvalues: 
  0.400  0.400  0.400  0.400  0.400
    eigenvectors:
  1.000  0.000  0.000  0.000  0.000
  0.000  1.000  0.000  0.000  0.000
  0.000  0.000  1.000  0.000  0.000
  0.000  0.000  0.000  1.000  0.000
  0.000  0.000  0.000  0.000  1.000
    occupations:
  0.400  0.000  0.000  0.000  0.000
  0.000  0.400  0.000  0.000  0.000
  0.000  0.000  0.400  0.000  0.000
  0.000  0.000  0.000  0.400  0.000
  0.000  0.000  0.000  0.000  0.400
atomic mag. moment =     3.000000
atom   24   Tr[ns(na)] (up, down, total) =   5.00000  2.00000  7.00000
   spin  1
    eigenvalues: 
  1.000  1.000  1.000  1.000  1.000
    eigenvectors:
  1.000  0.000  0.000  0.000  0.000
  0.000  1.000  0.000  0.000  0.000
  0.000  0.000  1.000  0.000  0.000
  0.000  0.000  0.000  1.000  0.000
  0.000  0.000  0.000  0.000  1.000
    occupations:
  1.000  0.000  0.000  0.000  0.000
  0.000  1.000  0.000  0.000  0.000
  0.000  0.000  1.000  0.000  0.000
  0.000  0.000  0.000  1.000  0.000
  0.000  0.000  0.000  0.000  1.000
   spin  2
    eigenvalues: 
  0.400  0.400  0.400  0.400  0.400
    eigenvectors:
  1.000  0.000  0.000  0.000  0.000
  0.000  1.000  0.000  0.000  0.000
  0.000  0.000  1.000  0.000  0.000
  0.000  0.000  0.000  1.000  0.000
  0.000  0.000  0.000  0.000  1.000
    occupations:
  0.400  0.000  0.000  0.000  0.000
  0.000  0.400  0.000  0.000  0.000
  0.000  0.000  0.400  0.000  0.000
  0.000  0.000  0.000  0.400  0.000
  0.000  0.000  0.000  0.000  0.400
atomic mag. moment =     3.000000
atom   25   Tr[ns(na)] (up, down, total) =   2.00000  5.00000  7.00000
   spin  1
    eigenvalues: 
  0.400  0.400  0.400  0.400  0.400
    eigenvectors:
  1.000  0.000  0.000  0.000  0.000
  0.000  1.000  0.000  0.000  0.000
  0.000  0.000  1.000  0.000  0.000
  0.000  0.000  0.000  1.000  0.000
  0.000  0.000  0.000  0.000  1.000
    occupations:
  0.400  0.000  0.000  0.000  0.000
  0.000  0.400  0.000  0.000  0.000
  0.000  0.000  0.400  0.000  0.000
  0.000  0.000  0.000  0.400  0.000
  0.000  0.000  0.000  0.000  0.400
   spin  2
    eigenvalues: 
  1.000  1.000  1.000  1.000  1.000
    eigenvectors:
  1.000  0.000  0.000  0.000  0.000
  0.000  1.000  0.000  0.000  0.000
  0.000  0.000  1.000  0.000  0.000
  0.000  0.000  0.000  1.000  0.000
  0.000  0.000  0.000  0.000  1.000
    occupations:
  1.000  0.000  0.000  0.000  0.000
  0.000  1.000  0.000  0.000  0.000
  0.000  0.000  1.000  0.000  0.000
  0.000  0.000  0.000  1.000  0.000
  0.000  0.000  0.000  0.000  1.000
atomic mag. moment =    -3.000000
atom   26   Tr[ns(na)] (up, down, total) =   2.00000  5.00000  7.00000
   spin  1
    eigenvalues: 
  0.400  0.400  0.400  0.400  0.400
    eigenvectors:
  1.000  0.000  0.000  0.000  0.000
  0.000  1.000  0.000  0.000  0.000
  0.000  0.000  1.000  0.000  0.000
  0.000  0.000  0.000  1.000  0.000
  0.000  0.000  0.000  0.000  1.000
    occupations:
  0.400  0.000  0.000  0.000  0.000
  0.000  0.400  0.000  0.000  0.000
  0.000  0.000  0.400  0.000  0.000
  0.000  0.000  0.000  0.400  0.000
  0.000  0.000  0.000  0.000  0.400
   spin  2
    eigenvalues: 
  1.000  1.000  1.000  1.000  1.000
    eigenvectors:
  1.000  0.000  0.000  0.000  0.000
  0.000  1.000  0.000  0.000  0.000
  0.000  0.000  1.000  0.000  0.000
  0.000  0.000  0.000  1.000  0.000
  0.000  0.000  0.000  0.000  1.000
    occupations:
  1.000  0.000  0.000  0.000  0.000
  0.000  1.000  0.000  0.000  0.000
  0.000  0.000  1.000  0.000  0.000
  0.000  0.000  0.000  1.000  0.000
  0.000  0.000  0.000  0.000  1.000
atomic mag. moment =    -3.000000
atom   27   Tr[ns(na)] (up, down, total) =   2.00000  5.00000  7.00000
   spin  1
    eigenvalues: 
  0.400  0.400  0.400  0.400  0.400
    eigenvectors:
  1.000  0.000  0.000  0.000  0.000
  0.000  1.000  0.000  0.000  0.000
  0.000  0.000  1.000  0.000  0.000
  0.000  0.000  0.000  1.000  0.000
  0.000  0.000  0.000  0.000  1.000
    occupations:
  0.400  0.000  0.000  0.000  0.000
  0.000  0.400  0.000  0.000  0.000
  0.000  0.000  0.400  0.000  0.000
  0.000  0.000  0.000  0.400  0.000
  0.000  0.000  0.000  0.000  0.400
   spin  2
    eigenvalues: 
  1.000  1.000  1.000  1.000  1.000
    eigenvectors:
  1.000  0.000  0.000  0.000  0.000
  0.000  1.000  0.000  0.000  0.000
  0.000  0.000  1.000  0.000  0.000
  0.000  0.000  0.000  1.000  0.000
  0.000  0.000  0.000  0.000  1.000
    occupations:
  1.000  0.000  0.000  0.000  0.000
  0.000  1.000  0.000  0.000  0.000
  0.000  0.000  1.000  0.000  0.000
  0.000  0.000  0.000  1.000  0.000
  0.000  0.000  0.000  0.000  1.000
atomic mag. moment =    -3.000000
atom   28   Tr[ns(na)] (up, down, total) =   2.00000  5.00000  7.00000
   spin  1
    eigenvalues: 
  0.400  0.400  0.400  0.400  0.400
    eigenvectors:
  1.000  0.000  0.000  0.000  0.000
  0.000  1.000  0.000  0.000  0.000
  0.000  0.000  1.000  0.000  0.000
  0.000  0.000  0.000  1.000  0.000
  0.000  0.000  0.000  0.000  1.000
    occupations:
  0.400  0.000  0.000  0.000  0.000
  0.000  0.400  0.000  0.000  0.000
  0.000  0.000  0.400  0.000  0.000
  0.000  0.000  0.000  0.400  0.000
  0.000  0.000  0.000  0.000  0.400
   spin  2
    eigenvalues: 
  1.000  1.000  1.000  1.000  1.000
    eigenvectors:
  1.000  0.000  0.000  0.000  0.000
  0.000  1.000  0.000  0.000  0.000
  0.000  0.000  1.000  0.000  0.000
  0.000  0.000  0.000  1.000  0.000
  0.000  0.000  0.000  0.000  1.000
    occupations:
  1.000  0.000  0.000  0.000  0.000
  0.000  1.000  0.000  0.000  0.000
  0.000  0.000  1.000  0.000  0.000
  0.000  0.000  0.000  1.000  0.000
  0.000  0.000  0.000  0.000  1.000
atomic mag. moment =    -3.000000
atom   29   Tr[ns(na)] (up, down, total) =   2.00000  5.00000  7.00000
   spin  1
    eigenvalues: 
  0.400  0.400  0.400  0.400  0.400
    eigenvectors:
  1.000  0.000  0.000  0.000  0.000
  0.000  1.000  0.000  0.000  0.000
  0.000  0.000  1.000  0.000  0.000
  0.000  0.000  0.000  1.000  0.000
  0.000  0.000  0.000  0.000  1.000
    occupations:
  0.400  0.000  0.000  0.000  0.000
  0.000  0.400  0.000  0.000  0.000
  0.000  0.000  0.400  0.000  0.000
  0.000  0.000  0.000  0.400  0.000
  0.000  0.000  0.000  0.000  0.400
   spin  2
    eigenvalues: 
  1.000  1.000  1.000  1.000  1.000
    eigenvectors:
  1.000  0.000  0.000  0.000  0.000
  0.000  1.000  0.000  0.000  0.000
  0.000  0.000  1.000  0.000  0.000
  0.000  0.000  0.000  1.000  0.000
  0.000  0.000  0.000  0.000  1.000
    occupations:
  1.000  0.000  0.000  0.000  0.000
  0.000  1.000  0.000  0.000  0.000
  0.000  0.000  1.000  0.000  0.000
  0.000  0.000  0.000  1.000  0.000
  0.000  0.000  0.000  0.000  1.000
atomic mag. moment =    -3.000000
atom   30   Tr[ns(na)] (up, down, total) =   2.00000  5.00000  7.00000
   spin  1
    eigenvalues: 
  0.400  0.400  0.400  0.400  0.400
    eigenvectors:
  1.000  0.000  0.000  0.000  0.000
  0.000  1.000  0.000  0.000  0.000
  0.000  0.000  1.000  0.000  0.000
  0.000  0.000  0.000  1.000  0.000
  0.000  0.000  0.000  0.000  1.000
    occupations:
  0.400  0.000  0.000  0.000  0.000
  0.000  0.400  0.000  0.000  0.000
  0.000  0.000  0.400  0.000  0.000
  0.000  0.000  0.000  0.400  0.000
  0.000  0.000  0.000  0.000  0.400
   spin  2
    eigenvalues: 
  1.000  1.000  1.000  1.000  1.000
    eigenvectors:
  1.000  0.000  0.000  0.000  0.000
  0.000  1.000  0.000  0.000  0.000
  0.000  0.000  1.000  0.000  0.000
  0.000  0.000  0.000  1.000  0.000
  0.000  0.000  0.000  0.000  1.000
    occupations:
  1.000  0.000  0.000  0.000  0.000
  0.000  1.000  0.000  0.000  0.000
  0.000  0.000  1.000  0.000  0.000
  0.000  0.000  0.000  1.000  0.000
  0.000  0.000  0.000  0.000  1.000
atomic mag. moment =    -3.000000
atom   31   Tr[ns(na)] (up, down, total) =   2.00000  5.00000  7.00000
   spin  1
    eigenvalues: 
  0.400  0.400  0.400  0.400  0.400
    eigenvectors:
  1.000  0.000  0.000  0.000  0.000
  0.000  1.000  0.000  0.000  0.000
  0.000  0.000  1.000  0.000  0.000
  0.000  0.000  0.000  1.000  0.000
  0.000  0.000  0.000  0.000  1.000
    occupations:
  0.400  0.000  0.000  0.000  0.000
  0.000  0.400  0.000  0.000  0.000
  0.000  0.000  0.400  0.000  0.000
  0.000  0.000  0.000  0.400  0.000
  0.000  0.000  0.000  0.000  0.400
   spin  2
    eigenvalues: 
  1.000  1.000  1.000  1.000  1.000
    eigenvectors:
  1.000  0.000  0.000  0.000  0.000
  0.000  1.000  0.000  0.000  0.000
  0.000  0.000  1.000  0.000  0.000
  0.000  0.000  0.000  1.000  0.000
  0.000  0.000  0.000  0.000  1.000
    occupations:
  1.000  0.000  0.000  0.000  0.000
  0.000  1.000  0.000  0.000  0.000
  0.000  0.000  1.000  0.000  0.000
  0.000  0.000  0.000  1.000  0.000
  0.000  0.000  0.000  0.000  1.000
atomic mag. moment =    -3.000000
atom   32   Tr[ns(na)] (up, down, total) =   0.00000  5.00000  5.00000
   spin  1
    eigenvalues: 
  0.000  0.000  0.000  0.000  0.000
    eigenvectors:
  1.000  0.000  0.000  0.000  0.000
  0.000  1.000  0.000  0.000  0.000
  0.000  0.000  1.000  0.000  0.000
  0.000  0.000  0.000  1.000  0.000
  0.000  0.000  0.000  0.000  1.000
    occupations:
  0.000  0.000  0.000  0.000  0.000
  0.000  0.000  0.000  0.000  0.000
  0.000  0.000  0.000  0.000  0.000
  0.000  0.000  0.000  0.000  0.000
  0.000  0.000  0.000  0.000  0.000
   spin  2
    eigenvalues: 
  1.000  1.000  1.000  1.000  1.000
    eigenvectors:
  1.000  0.000  0.000  0.000  0.000
  0.000  1.000  0.000  0.000  0.000
  0.000  0.000  1.000  0.000  0.000
  0.000  0.000  0.000  1.000  0.000
  0.000  0.000  0.000  0.000  1.000
    occupations:
  1.000  0.000  0.000  0.000  0.000
  0.000  1.000  0.000  0.000  0.000
  0.000  0.000  1.000  0.000  0.000
  0.000  0.000  0.000  1.000  0.000
  0.000  0.000  0.000  0.000  1.000
atomic mag. moment =    -5.000000
N of occupied +U levels =  110.000000
 --- exit write_ns ---
 Atomic wfc used for LDA+U Projector are NOT orthogonalized
     Starting wfcs are  480 randomized atomic wfcs

     total cpu time spent up to now is      348.6 secs

     Self-consistent Calculation

     iteration #  1     ecut=   350.00 Ry     beta= 0.20
     Davidson diagonalization with overlap
     ethr =  1.00E-02,  avg # of iterations =  3.9
 --- enter write_ns ---
 LDA+U parameters:
U( 1)     =  6.00000000
alpha( 1) =  0.00000000
U( 2)     =  6.00000000
alpha( 2) =  0.00000000
U( 4)     =  3.00000000
alpha( 4) =  0.00000000
atom   17   Tr[ns(na)] (up, down, total) =   1.62885  0.15794  1.78679
   spin  1
    eigenvalues: 
  0.143  0.147  0.429  0.445  0.465
    eigenvectors:
  0.151  0.717  0.012  0.101  0.019
  0.043  0.086  0.008  0.791  0.072
  0.054  0.001  0.716  0.065  0.165
  0.065  0.017  0.261  0.040  0.616
  0.687  0.179  0.003  0.004  0.128
    occupations:
  0.186 -0.099  0.020  0.000  0.010
 -0.099  0.408  0.011  0.001 -0.017
  0.020  0.011  0.421  0.006  0.064
  0.000  0.001  0.006  0.428 -0.086
  0.010 -0.017  0.064 -0.086  0.187
   spin  2
    eigenvalues: 
  0.018  0.018  0.021  0.050  0.051
    eigenvectors:
  0.183  0.019  0.001  0.606  0.191
  0.617  0.179  0.011  0.143  0.050
  0.081  0.185  0.653  0.003  0.079
  0.079  0.472  0.335  0.023  0.090
  0.040  0.145  0.001  0.225  0.590
    occupations:
  0.044  0.013 -0.003  0.001 -0.001
  0.013  0.024 -0.001  0.000 -0.000
 -0.003 -0.001  0.023 -0.002 -0.008
  0.001  0.000 -0.002  0.023  0.010
 -0.001 -0.000 -0.008  0.010  0.044
atomic mag. moment =     1.470912
atom   18   Tr[ns(na)] (up, down, total) =   1.42313  0.15471  1.57783
   spin  1
    eigenvalues: 
  0.143  0.143  0.372  0.381  0.384
    eigenvectors:
  0.431  0.452  0.116  0.000  0.000
  0.036  0.078  0.825  0.000  0.061
  0.009  0.038  0.046  0.013  0.894
  0.039  0.030  0.006  0.901  0.024
  0.485  0.402  0.007  0.085  0.022
    occupations:
  0.170 -0.072  0.015  0.003  0.007
 -0.072  0.347  0.011 -0.002 -0.010
  0.015  0.011  0.372  0.013  0.046
  0.003 -0.002  0.013  0.365 -0.059
  0.007 -0.010  0.046 -0.059  0.170
   spin  2
    eigenvalues: 
  0.018  0.018  0.020  0.050  0.050
    eigenvectors:
  0.009  0.193  0.002  0.011  0.784
  0.000  0.805  0.002  0.001  0.192
  0.281  0.000  0.635  0.068  0.015
  0.517  0.002  0.361  0.116  0.004
  0.192  0.000  0.000  0.804  0.004
    occupations:
  0.043  0.013 -0.003  0.001 -0.001
  0.013  0.024 -0.001  0.001 -0.000
 -0.003 -0.001  0.022 -0.002 -0.008
  0.001  0.001 -0.002  0.022  0.010
 -0.001 -0.000 -0.008  0.010  0.043
atomic mag. moment =     1.268419
atom   19   Tr[ns(na)] (up, down, total) =   1.65249  0.15861  1.81110
   spin  1
    eigenvalues: 
  0.143  0.148  0.441  0.455  0.466
    eigenvectors:
  0.268  0.596  0.033  0.030  0.073
  0.024  0.109  0.083  0.172  0.612
  0.021  0.032  0.702  0.037  0.208
  0.061  0.022  0.175  0.658  0.084
  0.625  0.241  0.007  0.104  0.023
    occupations:
  0.189 -0.105  0.015  0.004  0.011
 -0.105  0.420  0.018 -0.004 -0.010
  0.015  0.018  0.431  0.013  0.062
  0.004 -0.004  0.013  0.427 -0.084
  0.011 -0.010  0.062 -0.084  0.186
   spin  2
    eigenvalues: 
  0.018  0.018  0.021  0.050  0.051
    eigenvectors:
  0.036  0.159  0.010  0.523  0.272
  0.037  0.767  0.003  0.137  0.056
  0.215  0.044  0.661  0.055  0.025
  0.534  0.021  0.325  0.049  0.070
  0.178  0.009  0.001  0.236  0.577
    occupations:
  0.044  0.012 -0.003  0.001 -0.002
  0.012  0.025 -0.002  0.000 -0.000
 -0.003 -0.002  0.023 -0.002 -0.007
  0.001  0.000 -0.002  0.023  0.010
 -0.002 -0.000 -0.007  0.010  0.044
atomic mag. moment =     1.493883
atom   20   Tr[ns(na)] (up, down, total) =   1.65262  0.15862  1.81124
   spin  1
    eigenvalues: 
  0.143  0.148  0.441  0.455  0.466
    eigenvectors:
  0.268  0.597  0.032  0.030  0.072
  0.024  0.109  0.083  0.173  0.611
  0.021  0.032  0.700  0.038  0.209
  0.061  0.022  0.177  0.655  0.084
  0.626  0.241  0.007  0.104  0.023
    occupations:
  0.189 -0.105  0.015  0.004  0.011
 -0.105  0.420  0.018 -0.004 -0.010
  0.015  0.018  0.431  0.013  0.062
  0.004 -0.004  0.013  0.427 -0.084
  0.011 -0.010  0.062 -0.084  0.186
   spin  2
    eigenvalues: 
  0.018  0.018  0.021  0.050  0.051
    eigenvectors:
  0.043  0.151  0.011  0.534  0.260
  0.054  0.750  0.004  0.140  0.053
  0.212  0.056  0.653  0.054  0.026
  0.517  0.031  0.333  0.047  0.072
  0.175  0.013  0.000  0.224  0.588
    occupations:
  0.044  0.012 -0.003  0.001 -0.002
  0.012  0.025 -0.002  0.000 -0.000
 -0.003 -0.002  0.023 -0.002 -0.007
  0.001  0.000 -0.002  0.023  0.010
 -0.002 -0.000 -0.007  0.010  0.044
atomic mag. moment =     1.493999
atom   21   Tr[ns(na)] (up, down, total) =   1.64455  0.15859  1.80314
   spin  1
    eigenvalues: 
  0.143  0.148  0.441  0.455  0.458
    eigenvectors:
  0.858  0.006  0.022  0.010  0.104
  0.125  0.008  0.036  0.108  0.723
  0.002  0.050  0.818  0.115  0.013
  0.001  0.079  0.107  0.673  0.140
  0.013  0.857  0.016  0.094  0.020
    occupations:
  0.185 -0.105  0.018  0.002  0.011
 -0.105  0.415  0.014 -0.002 -0.013
  0.018  0.014  0.427  0.015  0.060
  0.002 -0.002  0.015  0.429 -0.082
  0.011 -0.013  0.060 -0.082  0.187
   spin  2
    eigenvalues: 
  0.018  0.018  0.021  0.050  0.051
    eigenvectors:
  0.081  0.109  0.003  0.019  0.788
  0.527  0.289  0.000  0.002  0.181
  0.153  0.207  0.555  0.068  0.017
  0.166  0.270  0.441  0.117  0.006
  0.072  0.125  0.001  0.794  0.009
    occupations:
  0.044  0.012 -0.002  0.001 -0.001
  0.012  0.024 -0.001  0.001 -0.000
 -0.002 -0.001  0.023 -0.002 -0.008
  0.001  0.001 -0.002  0.023  0.010
 -0.001 -0.000 -0.008  0.010  0.044
atomic mag. moment =     1.485959
atom   22   Tr[ns(na)] (up, down, total) =   1.62891  0.15796  1.78686
   spin  1
    eigenvalues: 
  0.143  0.147  0.429  0.445  0.465
    eigenvectors:
  0.152  0.717  0.012  0.100  0.019
  0.043  0.086  0.008  0.789  0.074
  0.054  0.001  0.715  0.065  0.164
  0.065  0.017  0.262  0.041  0.615
  0.686  0.179  0.003  0.004  0.128
    occupations:
  0.186 -0.099  0.020  0.000  0.010
 -0.099  0.408  0.011  0.001 -0.017
  0.020  0.011  0.421  0.006  0.064
  0.000  0.001  0.006  0.428 -0.086
  0.010 -0.017  0.064 -0.086  0.187
   spin  2
    eigenvalues: 
  0.018  0.018  0.021  0.050  0.051
    eigenvectors:
  0.184  0.018  0.001  0.602  0.195
  0.624  0.172  0.011  0.143  0.051
  0.077  0.183  0.659  0.003  0.079
  0.077  0.480  0.329  0.024  0.090
  0.038  0.147  0.001  0.228  0.586
    occupations:
  0.044  0.013 -0.003  0.001 -0.001
  0.013  0.024 -0.001  0.000 -0.000
 -0.003 -0.001  0.023 -0.002 -0.008
  0.001  0.000 -0.002  0.023  0.010
 -0.001 -0.000 -0.008  0.010  0.044
atomic mag. moment =     1.470950
atom   23   Tr[ns(na)] (up, down, total) =   1.64463  0.15855  1.80318
   spin  1
    eigenvalues: 
  0.143  0.148  0.441  0.455  0.458
    eigenvectors:
  0.858  0.006  0.022  0.010  0.104
  0.125  0.008  0.035  0.109  0.722
  0.002  0.050  0.821  0.113  0.013
  0.001  0.079  0.106  0.674  0.141
  0.013  0.857  0.016  0.094  0.020
    occupations:
  0.185 -0.105  0.018  0.002  0.011
 -0.105  0.415  0.014 -0.002 -0.013
  0.018  0.014  0.427  0.015  0.060
  0.002 -0.002  0.015  0.429 -0.082
  0.011 -0.013  0.060 -0.082  0.187
   spin  2
    eigenvalues: 
  0.018  0.018  0.021  0.050  0.051
    eigenvectors:
  0.089  0.102  0.003  0.011  0.796
  0.558  0.258  0.000  0.001  0.183
  0.143  0.226  0.548  0.070  0.014
  0.147  0.282  0.448  0.119  0.004
  0.064  0.132  0.001  0.799  0.004
    occupations:
  0.044  0.012 -0.002  0.001 -0.001
  0.012  0.024 -0.001  0.001 -0.000
 -0.002 -0.001  0.022 -0.002 -0.008
  0.001  0.001 -0.002  0.023  0.010
 -0.001 -0.000 -0.008  0.010  0.044
atomic mag. moment =     1.486076
atom   24   Tr[ns(na)] (up, down, total) =   1.42311  0.15470  1.57781
   spin  1
    eigenvalues: 
  0.143  0.143  0.372  0.381  0.384
    eigenvectors:
  0.428  0.455  0.116  0.000  0.000
  0.035  0.079  0.824  0.000  0.061
  0.010  0.037  0.046  0.013  0.894
  0.039  0.030  0.006  0.902  0.023
  0.488  0.399  0.007  0.085  0.022
    occupations:
  0.170 -0.072  0.015  0.003  0.007
 -0.072  0.347  0.011 -0.002 -0.010
  0.015  0.011  0.372  0.013  0.046
  0.003 -0.002  0.013  0.365 -0.059
  0.007 -0.010  0.046 -0.059  0.170
   spin  2
    eigenvalues: 
  0.018  0.018  0.020  0.050  0.050
    eigenvectors:
  0.006  0.195  0.002  0.040  0.757
  0.001  0.804  0.002  0.013  0.180
  0.283  0.000  0.634  0.083  0.001
  0.518  0.001  0.362  0.116  0.003
  0.192  0.000  0.000  0.748  0.059
    occupations:
  0.043  0.012 -0.003  0.001 -0.001
  0.012  0.024 -0.001  0.001 -0.000
 -0.003 -0.001  0.022 -0.002 -0.008
  0.001  0.001 -0.002  0.022  0.010
 -0.001 -0.000 -0.008  0.010  0.043
atomic mag. moment =     1.268408
atom   25   Tr[ns(na)] (up, down, total) =   0.15613  1.52008  1.67621
   spin  1
    eigenvalues: 
  0.018  0.018  0.021  0.050  0.050
    eigenvectors:
  0.283  0.443  0.006  0.237  0.030
  0.002  0.310  0.000  0.686  0.002
  0.091  0.017  0.597  0.007  0.288
  0.163  0.001  0.395  0.003  0.437
  0.461  0.228  0.001  0.068  0.242
    occupations:
  0.027  0.012 -0.004  0.005 -0.001
  0.012  0.040 -0.001  0.000 -0.007
 -0.004 -0.001  0.029 -0.010 -0.008
  0.005  0.000 -0.010  0.033  0.010
 -0.001 -0.007 -0.008  0.010  0.028
   spin  2
    eigenvalues: 
  0.144  0.145  0.404  0.405  0.422
    eigenvectors:
  0.071  0.098  0.427  0.357  0.047
  0.702  0.083  0.012  0.078  0.125
  0.021  0.304  0.029  0.364  0.282
  0.047  0.453  0.321  0.166  0.013
  0.158  0.062  0.210  0.036  0.534
    occupations:
  0.361 -0.083  0.033 -0.039  0.005
 -0.083  0.202  0.013 -0.002  0.073
  0.033  0.013  0.325  0.106  0.057
 -0.039 -0.002  0.106  0.275 -0.065
  0.005  0.073  0.057 -0.065  0.356
atomic mag. moment =    -1.363949
atom   26   Tr[ns(na)] (up, down, total) =   0.15616  1.52007  1.67623
   spin  1
    eigenvalues: 
  0.018  0.018  0.021  0.050  0.050
    eigenvectors:
  0.267  0.459  0.006  0.238  0.030
  0.001  0.311  0.000  0.685  0.002
  0.091  0.015  0.598  0.007  0.288
  0.165  0.001  0.395  0.003  0.437
  0.475  0.214  0.001  0.067  0.243
    occupations:
  0.027  0.012 -0.004  0.005 -0.001
  0.012  0.040 -0.001  0.000 -0.007
 -0.004 -0.001  0.029 -0.010 -0.008
  0.005  0.000 -0.010  0.033  0.010
 -0.001 -0.007 -0.008  0.010  0.028
   spin  2
    eigenvalues: 
  0.144  0.145  0.404  0.405  0.422
    eigenvectors:
  0.072  0.097  0.451  0.334  0.047
  0.704  0.082  0.014  0.076  0.125
  0.020  0.305  0.024  0.371  0.280
  0.047  0.454  0.308  0.179  0.012
  0.157  0.063  0.203  0.041  0.536
    occupations:
  0.361 -0.083  0.033 -0.039  0.005
 -0.083  0.202  0.013 -0.002  0.073
  0.033  0.013  0.325  0.106  0.057
 -0.039 -0.002  0.106  0.275 -0.065
  0.005  0.073  0.057 -0.065  0.356
atomic mag. moment =    -1.363913
atom   27   Tr[ns(na)] (up, down, total) =   0.15621  1.51950  1.67571
   spin  1
    eigenvalues: 
  0.018  0.018  0.021  0.050  0.050
    eigenvectors:
  0.112  0.618  0.003  0.256  0.010
  0.011  0.299  0.000  0.663  0.027
  0.108  0.001  0.598  0.025  0.268
  0.157  0.003  0.397  0.022  0.421
  0.612  0.079  0.001  0.034  0.274
    occupations:
  0.027  0.012 -0.004  0.005 -0.001
  0.012  0.040 -0.001  0.000 -0.007
 -0.004 -0.001  0.029 -0.010 -0.008
  0.005  0.000 -0.010  0.033  0.010
 -0.001 -0.007 -0.008  0.010  0.028
   spin  2
    eigenvalues: 
  0.144  0.144  0.399  0.404  0.428
    eigenvectors:
  0.125  0.051  0.045  0.008  0.771
  0.779  0.002  0.061  0.080  0.078
  0.000  0.334  0.244  0.413  0.009
  0.001  0.495  0.373  0.043  0.088
  0.095  0.119  0.276  0.456  0.054
    occupations:
  0.376 -0.089  0.036 -0.046  0.014
 -0.089  0.203  0.008  0.000  0.065
  0.036  0.008  0.317  0.103  0.053
 -0.046  0.000  0.103  0.276 -0.065
  0.014  0.065  0.053 -0.065  0.348
atomic mag. moment =    -1.363294
atom   28   Tr[ns(na)] (up, down, total) =   0.15490  1.47640  1.63130
   spin  1
    eigenvalues: 
  0.018  0.018  0.020  0.050  0.050
    eigenvectors:
  0.688  0.044  0.005  0.184  0.079
  0.271  0.035  0.000  0.212  0.482
  0.000  0.093  0.614  0.229  0.064
  0.015  0.161  0.381  0.319  0.125
  0.026  0.667  0.000  0.057  0.250
    occupations:
  0.026  0.013 -0.004  0.005 -0.001
  0.013  0.040 -0.001  0.000 -0.008
 -0.004 -0.001  0.029 -0.010 -0.008
  0.005  0.000 -0.010  0.033  0.010
 -0.001 -0.008 -0.008  0.010  0.028
   spin  2
    eigenvalues: 
  0.143  0.144  0.388  0.394  0.407
    eigenvectors:
  0.077  0.090  0.432  0.086  0.315
  0.716  0.068  0.003  0.004  0.209
  0.016  0.315  0.001  0.627  0.042
  0.037  0.459  0.225  0.278  0.000
  0.154  0.068  0.339  0.004  0.435
    occupations:
  0.354 -0.082  0.032 -0.036  0.001
 -0.082  0.200  0.011 -0.004  0.070
  0.032  0.011  0.312  0.101  0.051
 -0.036 -0.004  0.101  0.269 -0.062
  0.001  0.070  0.051 -0.062  0.342
atomic mag. moment =    -1.321498
atom   29   Tr[ns(na)] (up, down, total) =   0.15492  1.47641  1.63133
   spin  1
    eigenvalues: 
  0.018  0.018  0.020  0.050  0.050
    eigenvectors:
  0.682  0.050  0.005  0.183  0.080
  0.275  0.032  0.000  0.210  0.484
  0.000  0.091  0.616  0.230  0.064
  0.014  0.165  0.379  0.320  0.123
  0.030  0.663  0.000  0.058  0.249
    occupations:
  0.026  0.013 -0.004  0.005 -0.001
  0.013  0.040 -0.001  0.000 -0.008
 -0.004 -0.001  0.029 -0.010 -0.008
  0.005  0.000 -0.010  0.033  0.010
 -0.001 -0.008 -0.008  0.010  0.028
   spin  2
    eigenvalues: 
  0.143  0.144  0.388  0.394  0.407
    eigenvectors:
  0.077  0.090  0.430  0.090  0.313
  0.716  0.067  0.003  0.005  0.209
  0.016  0.315  0.000  0.627  0.042
  0.037  0.459  0.230  0.274  0.000
  0.154  0.069  0.337  0.004  0.436
    occupations:
  0.354 -0.082  0.032 -0.036  0.001
 -0.082  0.200  0.011 -0.004  0.070
  0.032  0.011  0.312  0.101  0.051
 -0.036 -0.004  0.101  0.269 -0.062
  0.001  0.070  0.051 -0.062  0.342
atomic mag. moment =    -1.321486
atom   30   Tr[ns(na)] (up, down, total) =   0.15621  1.51953  1.67574
   spin  1
    eigenvalues: 
  0.018  0.018  0.021  0.050  0.050
    eigenvectors:
  0.065  0.665  0.003  0.247  0.020
  0.025  0.285  0.000  0.680  0.010
  0.104  0.000  0.603  0.014  0.279
  0.155  0.009  0.393  0.009  0.433
  0.651  0.041  0.000  0.050  0.257
    occupations:
  0.027  0.013 -0.004  0.005 -0.001
  0.013  0.040 -0.001  0.000 -0.007
 -0.004 -0.001  0.029 -0.010 -0.008
  0.005  0.000 -0.010  0.033  0.010
 -0.001 -0.007 -0.008  0.010  0.028
   spin  2
    eigenvalues: 
  0.144  0.144  0.399  0.404  0.428
    eigenvectors:
  0.126  0.050  0.045  0.009  0.771
  0.779  0.002  0.059  0.082  0.078
  0.000  0.334  0.254  0.403  0.009
  0.000  0.495  0.377  0.039  0.088
  0.094  0.120  0.266  0.467  0.054
    occupations:
  0.376 -0.089  0.036 -0.046  0.014
 -0.089  0.203  0.008  0.000  0.065
  0.036  0.008  0.316  0.103  0.053
 -0.046  0.000  0.103  0.276 -0.065
  0.014  0.065  0.053 -0.065  0.349
atomic mag. moment =    -1.363319
atom   31   Tr[ns(na)] (up, down, total) =   0.15617  1.53793  1.69410
   spin  1
    eigenvalues: 
  0.018  0.018  0.021  0.050  0.050
    eigenvectors:
  0.704  0.029  0.006  0.023  0.238
  0.149  0.157  0.000  0.006  0.687
  0.021  0.081  0.605  0.283  0.011
  0.082  0.087  0.389  0.435  0.007
  0.045  0.645  0.000  0.253  0.057
    occupations:
  0.026  0.013 -0.004  0.005 -0.001
  0.013  0.040 -0.001  0.001 -0.008
 -0.004 -0.001  0.029 -0.010 -0.008
  0.005  0.001 -0.010  0.033  0.010
 -0.001 -0.008 -0.008  0.010  0.028
   spin  2
    eigenvalues: 
  0.144  0.145  0.398  0.413  0.438
    eigenvectors:
  0.003  0.176  0.076  0.080  0.665
  0.101  0.675  0.005  0.029  0.190
  0.263  0.059  0.630  0.022  0.026
  0.430  0.071  0.287  0.161  0.050
  0.203  0.019  0.001  0.707  0.070
    occupations:
  0.380 -0.096  0.029 -0.047  0.003
 -0.096  0.210  0.012  0.000  0.072
  0.029  0.012  0.318  0.102  0.054
 -0.047  0.000  0.102  0.275 -0.068
  0.003  0.072  0.054 -0.068  0.355
atomic mag. moment =    -1.381757
atom   32   Tr[ns(na)] (up, down, total) =   0.32519  4.25372  4.57891
   spin  1
    eigenvalues: 
  0.044  0.045  0.055  0.090  0.091
    eigenvectors:
  0.392  0.306  0.002  0.281  0.018
  0.029  0.314  0.000  0.650  0.007
  0.088  0.029  0.604  0.012  0.267
  0.160  0.025  0.394  0.008  0.414
  0.330  0.327  0.000  0.048  0.294
    occupations:
  0.058  0.019 -0.006  0.007 -0.002
  0.019  0.075 -0.002  0.001 -0.010
 -0.006 -0.002  0.064 -0.011 -0.012
  0.007  0.001 -0.011  0.068  0.015
 -0.002 -0.010 -0.012  0.015  0.060
   spin  2
    eigenvalues: 
  0.820  0.822  0.824  0.893  0.894
    eigenvectors:
  0.009  0.736  0.152  0.089  0.015
  0.011  0.108  0.023  0.196  0.661
  0.596  0.042  0.003  0.289  0.069
  0.338  0.002  0.124  0.418  0.118
  0.046  0.112  0.697  0.008  0.137
    occupations:
  0.830  0.017 -0.009  0.010 -0.001
  0.017  0.884 -0.002  0.000 -0.019
 -0.009 -0.002  0.847 -0.032 -0.011
  0.010  0.000 -0.032  0.860  0.013
 -0.001 -0.019 -0.011  0.013  0.834
atomic mag. moment =    -3.928537
N of occupied +U levels =   30.197484
 --- exit write_ns ---

     total cpu time spent up to now is     1782.2 secs

     total energy              =   -7040.29851599 Ry
     Harris-Foulkes estimate   =   -7204.04065849 Ry
     estimated scf accuracy    <     569.10641136 Ry

     total magnetization       =    -2.12 Bohr mag/cell
     absolute magnetization    =    34.44 Bohr mag/cell

     iteration #  2     ecut=   350.00 Ry     beta= 0.20
     Davidson diagonalization with overlap
     ethr =  1.00E-02,  avg # of iterations =  6.6

     total cpu time spent up to now is     3442.8 secs

     total energy              =   -7077.79729775 Ry
     Harris-Foulkes estimate   =   -7127.72723892 Ry
     estimated scf accuracy    <     279.10027922 Ry

     total magnetization       =     5.93 Bohr mag/cell
     absolute magnetization    =    35.42 Bohr mag/cell

     iteration #  3     ecut=   350.00 Ry     beta= 0.20
     Davidson diagonalization with overlap
     ethr =  1.00E-02,  avg # of iterations =  6.5

     total cpu time spent up to now is     4767.1 secs

     total energy              =   -7101.52717008 Ry
     Harris-Foulkes estimate   =   -7133.59708339 Ry
     estimated scf accuracy    <     286.24141404 Ry

     total magnetization       =   -15.32 Bohr mag/cell
     absolute magnetization    =    49.95 Bohr mag/cell

     iteration #  4     ecut=   350.00 Ry     beta= 0.20
     Davidson diagonalization with overlap
     ethr =  1.00E-02,  avg # of iterations =  4.0

     total cpu time spent up to now is     5582.8 secs

     total energy              =   -7113.19274719 Ry
     Harris-Foulkes estimate   =   -7118.72585404 Ry
     estimated scf accuracy    <      44.97172273 Ry

     total magnetization       =    -1.02 Bohr mag/cell
     absolute magnetization    =    61.64 Bohr mag/cell

     iteration #  5     ecut=   350.00 Ry     beta= 0.20
     Davidson diagonalization with overlap
     ethr =  6.13E-03,  avg # of iterations =  2.6

     total cpu time spent up to now is     6382.3 secs

     total energy              =   -7114.67638183 Ry
     Harris-Foulkes estimate   =   -7118.43036016 Ry
     estimated scf accuracy    <      49.31550953 Ry

     total magnetization       =     8.74 Bohr mag/cell
     absolute magnetization    =    53.51 Bohr mag/cell

     iteration #  6     ecut=   350.00 Ry     beta= 0.20
     Davidson diagonalization with overlap
     ethr =  6.13E-03,  avg # of iterations =  2.6

     total cpu time spent up to now is     7178.0 secs

     total energy              =   -7115.60930126 Ry
     Harris-Foulkes estimate   =   -7117.44090490 Ry
     estimated scf accuracy    <      26.52103740 Ry

     total magnetization       =    -5.27 Bohr mag/cell
     absolute magnetization    =    56.54 Bohr mag/cell

     iteration #  7     ecut=   350.00 Ry     beta= 0.20
     Davidson diagonalization with overlap
     ethr =  3.61E-03,  avg # of iterations =  3.2

     total cpu time spent up to now is     7983.2 secs

     total energy              =   -7117.36714498 Ry
     Harris-Foulkes estimate   =   -7118.21277709 Ry
     estimated scf accuracy    <      22.48851127 Ry

     total magnetization       =    -1.34 Bohr mag/cell
     absolute magnetization    =    54.98 Bohr mag/cell

     iteration #  8     ecut=   350.00 Ry     beta= 0.20
     Davidson diagonalization with overlap
     ethr =  3.06E-03,  avg # of iterations =  1.9

     total cpu time spent up to now is     8764.8 secs

     total energy              =   -7118.45060508 Ry
     Harris-Foulkes estimate   =   -7119.34124954 Ry
     estimated scf accuracy    <      23.90865165 Ry

     total magnetization       =     8.28 Bohr mag/cell
     absolute magnetization    =    53.96 Bohr mag/cell

     iteration #  9     ecut=   350.00 Ry     beta= 0.20
     Davidson diagonalization with overlap
     ethr =  3.06E-03,  avg # of iterations =  1.1

     total cpu time spent up to now is     9537.0 secs

     total energy              =   -7118.98236924 Ry
     Harris-Foulkes estimate   =   -7119.61624603 Ry
     estimated scf accuracy    <      16.61348732 Ry

     total magnetization       =     6.53 Bohr mag/cell
     absolute magnetization    =    54.83 Bohr mag/cell

     iteration # 10     ecut=   350.00 Ry     beta= 0.20
     Davidson diagonalization with overlap
     ethr =  2.26E-03,  avg # of iterations =  1.6

     total cpu time spent up to now is    10315.8 secs

     total energy              =   -7119.19927753 Ry
     Harris-Foulkes estimate   =   -7119.37062303 Ry
     estimated scf accuracy    <       7.57335250 Ry

     total magnetization       =     3.05 Bohr mag/cell
     absolute magnetization    =    53.31 Bohr mag/cell

     iteration # 11     ecut=   350.00 Ry     beta= 0.20
     Davidson diagonalization with overlap
     ethr =  1.03E-03,  avg # of iterations =  5.1

     total cpu time spent up to now is    11153.5 secs

     total energy              =   -7119.10694578 Ry
     Harris-Foulkes estimate   =   -7119.55612057 Ry
     estimated scf accuracy    <       6.73265429 Ry

     total magnetization       =    -2.39 Bohr mag/cell
     absolute magnetization    =    53.45 Bohr mag/cell

     iteration # 12     ecut=   350.00 Ry     beta= 0.20
     Davidson diagonalization with overlap
     ethr =  9.17E-04,  avg # of iterations =  3.4

     total cpu time spent up to now is    11959.9 secs

     total energy              =   -7119.77489714 Ry
     Harris-Foulkes estimate   =   -7119.81354722 Ry
     estimated scf accuracy    <       6.81530382 Ry

     total magnetization       =     4.03 Bohr mag/cell
     absolute magnetization    =    55.08 Bohr mag/cell

     iteration # 13     ecut=   350.00 Ry     beta= 0.20
     Davidson diagonalization with overlap
     ethr =  9.17E-04,  avg # of iterations =  1.4

     total cpu time spent up to now is    12736.5 secs

     total energy              =   -7119.86081266 Ry
     Harris-Foulkes estimate   =   -7119.99268572 Ry
     estimated scf accuracy    <       4.55052940 Ry

     total magnetization       =     0.05 Bohr mag/cell
     absolute magnetization    =    55.79 Bohr mag/cell

     iteration # 14     ecut=   350.00 Ry     beta= 0.20
     Davidson diagonalization with overlap
     ethr =  6.20E-04,  avg # of iterations =  1.8

     total cpu time spent up to now is    13526.0 secs

     total energy              =   -7119.95022207 Ry
     Harris-Foulkes estimate   =   -7120.01101452 Ry
     estimated scf accuracy    <       2.59843951 Ry

     total magnetization       =    -0.93 Bohr mag/cell
     absolute magnetization    =    54.82 Bohr mag/cell

     iteration # 15     ecut=   350.00 Ry     beta= 0.20
     Davidson diagonalization with overlap
     ethr =  3.54E-04,  avg # of iterations =  7.4

     total cpu time spent up to now is    14446.7 secs

     total energy              =   -7119.98939193 Ry
     Harris-Foulkes estimate   =   -7120.04203054 Ry
     estimated scf accuracy    <       1.82358439 Ry

     total magnetization       =     1.41 Bohr mag/cell
     absolute magnetization    =    54.22 Bohr mag/cell

     iteration # 16     ecut=   350.00 Ry     beta= 0.20
     Davidson diagonalization with overlap
     ethr =  2.48E-04,  avg # of iterations =  4.9

     total cpu time spent up to now is    15327.2 secs

     total energy              =   -7120.13803286 Ry
     Harris-Foulkes estimate   =   -7120.05446520 Ry
     estimated scf accuracy    <       1.84522613 Ry

     total magnetization       =     1.81 Bohr mag/cell
     absolute magnetization    =    54.06 Bohr mag/cell

     iteration # 17     ecut=   350.00 Ry     beta= 0.20
     Davidson diagonalization with overlap
     ethr =  2.48E-04,  avg # of iterations =  1.0

     total cpu time spent up to now is    16113.7 secs

     total energy              =   -7120.28439363 Ry
     Harris-Foulkes estimate   =   -7120.14268914 Ry
     estimated scf accuracy    <       1.25543516 Ry

     total magnetization       =     1.40 Bohr mag/cell
     absolute magnetization    =    54.14 Bohr mag/cell

     iteration # 18     ecut=   350.00 Ry     beta= 0.20
     Davidson diagonalization with overlap
     ethr =  1.71E-04,  avg # of iterations =  1.7

     total cpu time spent up to now is    16906.6 secs

     total energy              =   -7120.39431625 Ry
     Harris-Foulkes estimate   =   -7120.30809017 Ry
     estimated scf accuracy    <       0.86168443 Ry

     total magnetization       =     0.76 Bohr mag/cell
     absolute magnetization    =    54.19 Bohr mag/cell

     iteration # 19     ecut=   350.00 Ry     beta= 0.20
     Davidson diagonalization with overlap
     ethr =  1.17E-04,  avg # of iterations =  1.0

     total cpu time spent up to now is    17693.5 secs

     total energy              =   -7120.58976018 Ry
     Harris-Foulkes estimate   =   -7120.41268994 Ry
     estimated scf accuracy    <       0.62430548 Ry

     total magnetization       =     0.99 Bohr mag/cell
     absolute magnetization    =    54.29 Bohr mag/cell

     iteration # 20     ecut=   350.00 Ry     beta= 0.20
     Davidson diagonalization with overlap
     ethr =  8.51E-05,  avg # of iterations =  1.0

     total cpu time spent up to now is    18468.9 secs

     total energy              =   -7120.72274071 Ry
     Harris-Foulkes estimate   =   -7120.61458043 Ry
     estimated scf accuracy    <       0.43583600 Ry

     total magnetization       =    -0.02 Bohr mag/cell
     absolute magnetization    =    54.50 Bohr mag/cell

     iteration # 21     ecut=   350.00 Ry     beta= 0.20
     Davidson diagonalization with overlap
     ethr =  5.94E-05,  avg # of iterations =  2.0

     total cpu time spent up to now is    19264.4 secs

     total energy              =   -7120.74204816 Ry
     Harris-Foulkes estimate   =   -7120.75740167 Ry
     estimated scf accuracy    <       0.30573128 Ry

     total magnetization       =     1.29 Bohr mag/cell
     absolute magnetization    =    53.84 Bohr mag/cell

     iteration # 22     ecut=   350.00 Ry     beta= 0.20
     Davidson diagonalization with overlap
     ethr =  4.17E-05,  avg # of iterations =  1.3

     total cpu time spent up to now is    20042.1 secs

     total energy              =   -7120.77232680 Ry
     Harris-Foulkes estimate   =   -7120.77306626 Ry
     estimated scf accuracy    <       0.09413499 Ry

     total magnetization       =    -0.00 Bohr mag/cell
     absolute magnetization    =    54.53 Bohr mag/cell

     iteration # 23     ecut=   350.00 Ry     beta= 0.20
     Davidson diagonalization with overlap
     c_bands:  1 eigenvalues not converged
     ethr =  1.28E-05,  avg # of iterations =  6.8

     total cpu time spent up to now is    20898.8 secs

     total energy              =   -7120.77927339 Ry
     Harris-Foulkes estimate   =   -7120.77452838 Ry
     estimated scf accuracy    <       0.05137598 Ry

     total magnetization       =    -0.01 Bohr mag/cell
     absolute magnetization    =    54.46 Bohr mag/cell

     iteration # 24     ecut=   350.00 Ry     beta= 0.20
     Davidson diagonalization with overlap
     ethr =  7.00E-06,  avg # of iterations =  8.6

     total cpu time spent up to now is    21780.2 secs

     total energy              =   -7120.78778748 Ry
     Harris-Foulkes estimate   =   -7120.78045457 Ry
     estimated scf accuracy    <       0.02775768 Ry

     total magnetization       =    -0.01 Bohr mag/cell
     absolute magnetization    =    54.43 Bohr mag/cell

     iteration # 25     ecut=   350.00 Ry     beta= 0.20
     Davidson diagonalization with overlap
     c_bands:  1 eigenvalues not converged
     ethr =  3.78E-06,  avg # of iterations = 11.3

     total cpu time spent up to now is    22724.5 secs

     total energy              =   -7120.79461428 Ry
     Harris-Foulkes estimate   =   -7120.78982886 Ry
     estimated scf accuracy    <       0.00953842 Ry

     total magnetization       =    -0.00 Bohr mag/cell
     absolute magnetization    =    54.37 Bohr mag/cell

     iteration # 26     ecut=   350.00 Ry     beta= 0.20
     Davidson diagonalization with overlap
     c_bands:  3 eigenvalues not converged
     ethr =  1.30E-06,  avg # of iterations =  8.8

     total cpu time spent up to now is    23627.3 secs

     total energy              =   -7120.79724912 Ry
     Harris-Foulkes estimate   =   -7120.79608042 Ry
     estimated scf accuracy    <       0.00460415 Ry

     total magnetization       =    -0.00 Bohr mag/cell
     absolute magnetization    =    54.34 Bohr mag/cell

     iteration # 27     ecut=   350.00 Ry     beta= 0.20
     Davidson diagonalization with overlap
     ethr =  6.27E-07,  avg # of iterations =  3.0

     total cpu time spent up to now is    24421.7 secs

     total energy              =   -7120.79874822 Ry
     Harris-Foulkes estimate   =   -7120.79753233 Ry
     estimated scf accuracy    <       0.00323660 Ry

     total magnetization       =    -0.00 Bohr mag/cell
     absolute magnetization    =    54.34 Bohr mag/cell

     iteration # 28     ecut=   350.00 Ry     beta= 0.20
     Davidson diagonalization with overlap
     ethr =  4.41E-07,  avg # of iterations =  2.1

     total cpu time spent up to now is    25208.9 secs

     total energy              =   -7120.79982409 Ry
     Harris-Foulkes estimate   =   -7120.79910478 Ry
     estimated scf accuracy    <       0.00231092 Ry

     total magnetization       =    -0.00 Bohr mag/cell
     absolute magnetization    =    54.32 Bohr mag/cell

     iteration # 29     ecut=   350.00 Ry     beta= 0.20
     Davidson diagonalization with overlap
     ethr =  3.15E-07,  avg # of iterations =  2.2

     total cpu time spent up to now is    25999.4 secs

     total energy              =   -7120.80073101 Ry
     Harris-Foulkes estimate   =   -7120.80008448 Ry
     estimated scf accuracy    <       0.00174071 Ry

     total magnetization       =     0.00 Bohr mag/cell
     absolute magnetization    =    54.31 Bohr mag/cell

     iteration # 30     ecut=   350.00 Ry     beta= 0.20
     Davidson diagonalization with overlap
     ethr =  2.37E-07,  avg # of iterations =  2.2

     total cpu time spent up to now is    26794.6 secs

     total energy              =   -7120.80145078 Ry
     Harris-Foulkes estimate   =   -7120.80104948 Ry
     estimated scf accuracy    <       0.00091789 Ry

     total magnetization       =    -0.00 Bohr mag/cell
     absolute magnetization    =    54.30 Bohr mag/cell

     iteration # 31     ecut=   350.00 Ry     beta= 0.20
     Davidson diagonalization with overlap
     ethr =  1.25E-07,  avg # of iterations =  2.1

     total cpu time spent up to now is    27585.8 secs

     total energy              =   -7120.80183152 Ry
     Harris-Foulkes estimate   =   -7120.80164436 Ry
     estimated scf accuracy    <       0.00037473 Ry

     total magnetization       =     0.00 Bohr mag/cell
     absolute magnetization    =    54.28 Bohr mag/cell

     iteration # 32     ecut=   350.00 Ry     beta= 0.20
     Davidson diagonalization with overlap
     ethr =  5.11E-08,  avg # of iterations =  2.8

     total cpu time spent up to now is    28400.7 secs

     total energy              =   -7120.80196308 Ry
     Harris-Foulkes estimate   =   -7120.80191165 Ry
     estimated scf accuracy    <       0.00016588 Ry

     total magnetization       =    -0.00 Bohr mag/cell
     absolute magnetization    =    54.27 Bohr mag/cell

     iteration # 33     ecut=   350.00 Ry     beta= 0.20
     Davidson diagonalization with overlap
     ethr =  2.26E-08,  avg # of iterations =  1.2

     total cpu time spent up to now is    29174.4 secs

     total energy              =   -7120.80203281 Ry
     Harris-Foulkes estimate   =   -7120.80197271 Ry
     estimated scf accuracy    <       0.00012994 Ry

     total magnetization       =    -0.00 Bohr mag/cell
     absolute magnetization    =    54.26 Bohr mag/cell

     iteration # 34     ecut=   350.00 Ry     beta= 0.20
     Davidson diagonalization with overlap
     ethr =  1.77E-08,  avg # of iterations =  2.0

     total cpu time spent up to now is    29967.3 secs

     total energy              =   -7120.80210103 Ry
     Harris-Foulkes estimate   =   -7120.80205371 Ry
     estimated scf accuracy    <       0.00009483 Ry

     total magnetization       =    -0.00 Bohr mag/cell
     absolute magnetization    =    54.26 Bohr mag/cell

     iteration # 35     ecut=   350.00 Ry     beta= 0.20
     Davidson diagonalization with overlap
     ethr =  1.29E-08,  avg # of iterations =  2.1

     total cpu time spent up to now is    30753.3 secs

     total energy              =   -7120.80214290 Ry
     Harris-Foulkes estimate   =   -7120.80211957 Ry
     estimated scf accuracy    <       0.00008504 Ry

     total magnetization       =    -0.00 Bohr mag/cell
     absolute magnetization    =    54.26 Bohr mag/cell

     iteration # 36     ecut=   350.00 Ry     beta= 0.20
     Davidson diagonalization with overlap
     ethr =  1.16E-08,  avg # of iterations =  1.5

     total cpu time spent up to now is    31532.9 secs

     total energy              =   -7120.80219227 Ry
     Harris-Foulkes estimate   =   -7120.80214713 Ry
     estimated scf accuracy    <       0.00008246 Ry

     total magnetization       =     0.00 Bohr mag/cell
     absolute magnetization    =    54.26 Bohr mag/cell

     iteration # 37     ecut=   350.00 Ry     beta= 0.20
     Davidson diagonalization with overlap
     ethr =  1.12E-08,  avg # of iterations =  2.1

     total cpu time spent up to now is    32326.6 secs

     total energy              =   -7120.80226138 Ry
     Harris-Foulkes estimate   =   -7120.80221378 Ry
     estimated scf accuracy    <       0.00007851 Ry

     total magnetization       =     0.00 Bohr mag/cell
     absolute magnetization    =    54.25 Bohr mag/cell

     iteration # 38     ecut=   350.00 Ry     beta= 0.20
     Davidson diagonalization with overlap
     ethr =  1.07E-08,  avg # of iterations =  2.3

     total cpu time spent up to now is    33150.8 secs

     total energy              =   -7120.80237266 Ry
     Harris-Foulkes estimate   =   -7120.80232662 Ry
     estimated scf accuracy    <       0.00007453 Ry

     total magnetization       =    -0.00 Bohr mag/cell
     absolute magnetization    =    54.25 Bohr mag/cell

     iteration # 39     ecut=   350.00 Ry     beta= 0.20
     Davidson diagonalization with overlap
     ethr =  1.02E-08,  avg # of iterations =  2.4

     total cpu time spent up to now is    33962.1 secs

     total energy              =   -7120.80245180 Ry
     Harris-Foulkes estimate   =   -7120.80242014 Ry
     estimated scf accuracy    <       0.00007616 Ry

     total magnetization       =     0.00 Bohr mag/cell
     absolute magnetization    =    54.25 Bohr mag/cell

     iteration # 40     ecut=   350.00 Ry     beta= 0.20
     Davidson diagonalization with overlap
     ethr =  1.02E-08,  avg # of iterations =  1.9

     total cpu time spent up to now is    34744.2 secs

     total energy              =   -7120.80246700 Ry
     Harris-Foulkes estimate   =   -7120.80246134 Ry
     estimated scf accuracy    <       0.00007183 Ry

     total magnetization       =    -0.00 Bohr mag/cell
     absolute magnetization    =    54.25 Bohr mag/cell

     iteration # 41     ecut=   350.00 Ry     beta= 0.20
     Davidson diagonalization with overlap
     ethr =  9.79E-09,  avg # of iterations =  2.9

     total cpu time spent up to now is    35657.9 secs

     total energy              =   -7120.80264874 Ry
     Harris-Foulkes estimate   =   -7120.80263766 Ry
     estimated scf accuracy    <       0.00007191 Ry

     total magnetization       =    -0.00 Bohr mag/cell
     absolute magnetization    =    54.25 Bohr mag/cell

     iteration # 42     ecut=   350.00 Ry     beta= 0.20
     Davidson diagonalization with overlap
     ethr =  9.79E-09,  avg # of iterations =  1.0

     total cpu time spent up to now is    36430.7 secs

     total energy              =   -7120.80262265 Ry
     Harris-Foulkes estimate   =   -7120.80264970 Ry
     estimated scf accuracy    <       0.00007184 Ry

     total magnetization       =    -0.00 Bohr mag/cell
     absolute magnetization    =    54.25 Bohr mag/cell

     iteration # 43     ecut=   350.00 Ry     beta= 0.20
     Davidson diagonalization with overlap
     ethr =  9.79E-09,  avg # of iterations =  1.0

     total cpu time spent up to now is    37205.7 secs

     total energy              =   -7120.80264490 Ry
     Harris-Foulkes estimate   =   -7120.80262583 Ry
     estimated scf accuracy    <       0.00007280 Ry

     total magnetization       =     0.00 Bohr mag/cell
     absolute magnetization    =    54.25 Bohr mag/cell

     iteration # 44     ecut=   350.00 Ry     beta= 0.20
     Davidson diagonalization with overlap
     ethr =  9.79E-09,  avg # of iterations =  1.0

     total cpu time spent up to now is    37977.8 secs

     total energy              =   -7120.80261809 Ry
     Harris-Foulkes estimate   =   -7120.80264855 Ry
     estimated scf accuracy    <       0.00007069 Ry

     total magnetization       =    -0.00 Bohr mag/cell
     absolute magnetization    =    54.25 Bohr mag/cell

     iteration # 45     ecut=   350.00 Ry     beta= 0.20
     Davidson diagonalization with overlap
     ethr =  9.63E-09,  avg # of iterations =  1.0

     total cpu time spent up to now is    38750.8 secs

     total energy              =   -7120.80266125 Ry
     Harris-Foulkes estimate   =   -7120.80262202 Ry
     estimated scf accuracy    <       0.00007148 Ry

     total magnetization       =     0.00 Bohr mag/cell
     absolute magnetization    =    54.25 Bohr mag/cell

     iteration # 46     ecut=   350.00 Ry     beta= 0.20
     Davidson diagonalization with overlap
     ethr =  9.63E-09,  avg # of iterations =  2.0

     total cpu time spent up to now is    39540.8 secs

     total energy              =   -7120.80270350 Ry
     Harris-Foulkes estimate   =   -7120.80268086 Ry
     estimated scf accuracy    <       0.00007023 Ry

     total magnetization       =     0.00 Bohr mag/cell
     absolute magnetization    =    54.25 Bohr mag/cell

     iteration # 47     ecut=   350.00 Ry     beta= 0.20
     Davidson diagonalization with overlap
     ethr =  9.57E-09,  avg # of iterations =  1.1

     total cpu time spent up to now is    40313.7 secs

     total energy              =   -7120.80266211 Ry
     Harris-Foulkes estimate   =   -7120.80270849 Ry
     estimated scf accuracy    <       0.00007000 Ry

     total magnetization       =    -0.00 Bohr mag/cell
     absolute magnetization    =    54.25 Bohr mag/cell

     iteration # 48     ecut=   350.00 Ry     beta= 0.20
     Davidson diagonalization with overlap
     ethr =  9.54E-09,  avg # of iterations =  1.8

     total cpu time spent up to now is    41095.2 secs

     total energy              =   -7120.80245493 Ry
     Harris-Foulkes estimate   =   -7120.80267087 Ry
     estimated scf accuracy    <       0.00007042 Ry

     total magnetization       =    -0.00 Bohr mag/cell
     absolute magnetization    =    54.25 Bohr mag/cell

     iteration # 49     ecut=   350.00 Ry     beta= 0.20
     Davidson diagonalization with overlap
     ethr =  9.54E-09,  avg # of iterations =  2.4

     total cpu time spent up to now is    41938.5 secs

     total energy              =   -7120.80250567 Ry
     Harris-Foulkes estimate   =   -7120.80254366 Ry
     estimated scf accuracy    <       0.00007208 Ry

     total magnetization       =    -0.00 Bohr mag/cell
     absolute magnetization    =    54.25 Bohr mag/cell

     iteration # 50     ecut=   350.00 Ry     beta= 0.20
     Davidson diagonalization with overlap
     ethr =  9.54E-09,  avg # of iterations =  2.8

     total cpu time spent up to now is    42856.7 secs

     total energy              =   -7120.80279234 Ry
     Harris-Foulkes estimate   =   -7120.80275645 Ry
     estimated scf accuracy    <       0.00006939 Ry

     total magnetization       =    -0.00 Bohr mag/cell
     absolute magnetization    =    54.25 Bohr mag/cell

     iteration # 51     ecut=   350.00 Ry     beta= 0.20
     Davidson diagonalization with overlap
     ethr =  9.45E-09,  avg # of iterations =  2.5

     total cpu time spent up to now is    43697.0 secs

     total energy              =   -7120.80289438 Ry
     Harris-Foulkes estimate   =   -7120.80288080 Ry
     estimated scf accuracy    <       0.00006891 Ry

     total magnetization       =     0.00 Bohr mag/cell
     absolute magnetization    =    54.25 Bohr mag/cell

     iteration # 52     ecut=   350.00 Ry     beta= 0.20
     Davidson diagonalization with overlap
     ethr =  9.39E-09,  avg # of iterations =  1.0

     total cpu time spent up to now is    44468.8 secs

     total energy              =   -7120.80293659 Ry
     Harris-Foulkes estimate   =   -7120.80289578 Ry
     estimated scf accuracy    <       0.00006860 Ry

     total magnetization       =     0.00 Bohr mag/cell
     absolute magnetization    =    54.25 Bohr mag/cell

     iteration # 53     ecut=   350.00 Ry     beta= 0.20
     Davidson diagonalization with overlap
     ethr =  9.35E-09,  avg # of iterations =  2.4

     total cpu time spent up to now is    45300.8 secs

     total energy              =   -7120.80283902 Ry
     Harris-Foulkes estimate   =   -7120.80300058 Ry
     estimated scf accuracy    <       0.00006492 Ry

     total magnetization       =     0.00 Bohr mag/cell
     absolute magnetization    =    54.25 Bohr mag/cell

     iteration # 54     ecut=   350.00 Ry     beta= 0.20
     Davidson diagonalization with overlap
     ethr =  8.84E-09,  avg # of iterations =  4.2

     total cpu time spent up to now is    46344.1 secs

     total energy              =   -7120.80329153 Ry
     Harris-Foulkes estimate   =   -7120.80326462 Ry
     estimated scf accuracy    <       0.00006190 Ry

     total magnetization       =     0.00 Bohr mag/cell
     absolute magnetization    =    54.25 Bohr mag/cell

     iteration # 55     ecut=   350.00 Ry     beta= 0.20
     Davidson diagonalization with overlap
     ethr =  8.43E-09,  avg # of iterations =  2.5

     total cpu time spent up to now is    47192.3 secs

     total energy              =   -7120.80341322 Ry
     Harris-Foulkes estimate   =   -7120.80339059 Ry
     estimated scf accuracy    <       0.00006126 Ry

     total magnetization       =     0.00 Bohr mag/cell
     absolute magnetization    =    54.25 Bohr mag/cell

     iteration # 56     ecut=   350.00 Ry     beta= 0.20
     Davidson diagonalization with overlap
     ethr =  8.35E-09,  avg # of iterations =  1.2

     total cpu time spent up to now is    47966.5 secs

     total energy              =   -7120.80339559 Ry
     Harris-Foulkes estimate   =   -7120.80341878 Ry
     estimated scf accuracy    <       0.00006114 Ry

     total magnetization       =    -0.00 Bohr mag/cell
     absolute magnetization    =    54.25 Bohr mag/cell

     iteration # 57     ecut=   350.00 Ry     beta= 0.20
     Davidson diagonalization with overlap
     ethr =  8.33E-09,  avg # of iterations =  1.0

     total cpu time spent up to now is    48737.7 secs

     total energy              =   -7120.80343727 Ry
     Harris-Foulkes estimate   =   -7120.80339841 Ry
     estimated scf accuracy    <       0.00006133 Ry

     total magnetization       =     0.00 Bohr mag/cell
     absolute magnetization    =    54.25 Bohr mag/cell

     iteration # 58     ecut=   350.00 Ry     beta= 0.20
     Davidson diagonalization with overlap
     ethr =  8.33E-09,  avg # of iterations =  2.0

     total cpu time spent up to now is    49534.2 secs

     total energy              =   -7120.80337965 Ry
     Harris-Foulkes estimate   =   -7120.80346576 Ry
     estimated scf accuracy    <       0.00006024 Ry

     total magnetization       =    -0.00 Bohr mag/cell
     absolute magnetization    =    54.25 Bohr mag/cell

     iteration # 59     ecut=   350.00 Ry     beta= 0.20
     Davidson diagonalization with overlap
     ethr =  8.21E-09,  avg # of iterations =  3.2

     total cpu time spent up to now is    50530.0 secs

     total energy              =   -7120.80326883 Ry
     Harris-Foulkes estimate   =   -7120.80367891 Ry
     estimated scf accuracy    <       0.00005764 Ry

     total magnetization       =    -0.00 Bohr mag/cell
     absolute magnetization    =    54.25 Bohr mag/cell

     iteration # 60     ecut=   350.00 Ry     beta= 0.20
     Davidson diagonalization with overlap
     ethr =  7.85E-09,  avg # of iterations =  3.5

     total cpu time spent up to now is    51599.5 secs

     total energy              =   -7120.80376508 Ry
     Harris-Foulkes estimate   =   -7120.80399746 Ry
     estimated scf accuracy    <       0.00005736 Ry

     total magnetization       =     0.00 Bohr mag/cell
     absolute magnetization    =    54.25 Bohr mag/cell

     iteration # 61     ecut=   350.00 Ry     beta= 0.20
     Davidson diagonalization with overlap
     ethr =  7.82E-09,  avg # of iterations =  3.4

     total cpu time spent up to now is    52630.2 secs

     total energy              =   -7120.80426134 Ry
     Harris-Foulkes estimate   =   -7120.80424992 Ry
     estimated scf accuracy    <       0.00005867 Ry

     total magnetization       =    -0.00 Bohr mag/cell
     absolute magnetization    =    54.25 Bohr mag/cell

     iteration # 62     ecut=   350.00 Ry     beta= 0.20
     Davidson diagonalization with overlap
     ethr =  7.82E-09,  avg # of iterations =  1.0

     total cpu time spent up to now is    53403.2 secs

     total energy              =   -7120.80426909 Ry
     Harris-Foulkes estimate   =   -7120.80426299 Ry
     estimated scf accuracy    <       0.00005476 Ry

     total magnetization       =     0.00 Bohr mag/cell
     absolute magnetization    =    54.25 Bohr mag/cell

     iteration # 63     ecut=   350.00 Ry     beta= 0.20
     Davidson diagonalization with overlap
     ethr =  7.46E-09,  avg # of iterations =  2.5

     total cpu time spent up to now is    54273.0 secs

     total energy              =   -7120.80432555 Ry
     Harris-Foulkes estimate   =   -7120.80437175 Ry
     estimated scf accuracy    <       0.00005283 Ry

     total magnetization       =    -0.00 Bohr mag/cell
     absolute magnetization    =    54.25 Bohr mag/cell

     iteration # 64     ecut=   350.00 Ry     beta= 0.20
     Davidson diagonalization with overlap
     ethr =  7.20E-09,  avg # of iterations =  2.0

     total cpu time spent up to now is    55062.2 secs

     total energy              =   -7120.80425131 Ry
     Harris-Foulkes estimate   =   -7120.80433719 Ry
     estimated scf accuracy    <       0.00005349 Ry

     total magnetization       =     0.00 Bohr mag/cell
     absolute magnetization    =    54.25 Bohr mag/cell

     iteration # 65     ecut=   350.00 Ry     beta= 0.20
     Davidson diagonalization with overlap
     ethr =  7.20E-09,  avg # of iterations =  2.8

     total cpu time spent up to now is    56027.8 secs

     total energy              =   -7120.80453690 Ry
     Harris-Foulkes estimate   =   -7120.80450762 Ry
     estimated scf accuracy    <       0.00005128 Ry

     total magnetization       =     0.00 Bohr mag/cell
     absolute magnetization    =    54.25 Bohr mag/cell

     iteration # 66     ecut=   350.00 Ry     beta= 0.20
     Davidson diagonalization with overlap
     ethr =  6.99E-09,  avg # of iterations =  2.2

     total cpu time spent up to now is    56845.0 secs

     total energy              =   -7120.80402262 Ry
     Harris-Foulkes estimate   =   -7120.80458053 Ry
     estimated scf accuracy    <       0.00004894 Ry

     total magnetization       =    -0.00 Bohr mag/cell
     absolute magnetization    =    54.25 Bohr mag/cell

     iteration # 67     ecut=   350.00 Ry     beta= 0.20
     Davidson diagonalization with overlap
     ethr =  6.67E-09,  avg # of iterations =  3.5

     total cpu time spent up to now is    57962.9 secs

     total energy              =   -7120.80485926 Ry
     Harris-Foulkes estimate   =   -7120.80487626 Ry
     estimated scf accuracy    <       0.00005229 Ry

     total magnetization       =     0.00 Bohr mag/cell
     absolute magnetization    =    54.25 Bohr mag/cell

     iteration # 68     ecut=   350.00 Ry     beta= 0.20
     Davidson diagonalization with overlap
     ethr =  6.67E-09,  avg # of iterations =  2.5

     total cpu time spent up to now is    58831.6 secs

     total energy              =   -7120.80347390 Ry
     Harris-Foulkes estimate   =   -7120.80492192 Ry
     estimated scf accuracy    <       0.00008841 Ry

     total magnetization       =    -0.00 Bohr mag/cell
     absolute magnetization    =    54.25 Bohr mag/cell

     iteration # 69     ecut=   350.00 Ry     beta= 0.20
     Davidson diagonalization with overlap
     ethr =  6.67E-09,  avg # of iterations =  3.5

     total cpu time spent up to now is    59961.8 secs

[...]

     total cpu time spent up to now is   118929.3 secs

     total energy              =   -7120.80542213 Ry
     Harris-Foulkes estimate   =   -7120.80587107 Ry
     estimated scf accuracy    <       0.00005187 Ry

     total magnetization       =    -0.00 Bohr mag/cell
     absolute magnetization    =    54.26 Bohr mag/cell

     iteration #124     ecut=   350.00 Ry     beta= 0.20
     Davidson diagonalization with overlap
     ethr =  2.76E-09,  avg # of iterations =  3.5

     total cpu time spent up to now is   119991.4 secs

     total energy              =   -7120.80495559 Ry
     Harris-Foulkes estimate   =   -7120.80554777 Ry
     estimated scf accuracy    <       0.00047220 Ry

     total magnetization       =    -0.00 Bohr mag/cell
     absolute magnetization    =    54.26 Bohr mag/cell

     iteration #125     ecut=   350.00 Ry     beta= 0.20
     Davidson diagonalization with overlap
     ethr =  2.76E-09,  avg # of iterations =  3.7

     total cpu time spent up to now is   121240.5 secs

     total energy              =   -7120.80516964 Ry
     Harris-Foulkes estimate   =   -7120.80558905 Ry
     estimated scf accuracy    <       0.00009105 Ry

     total magnetization       =     0.00 Bohr mag/cell
     absolute magnetization    =    54.26 Bohr mag/cell

     iteration #126     ecut=   350.00 Ry     beta= 0.20
     Davidson diagonalization with overlap
     ethr =  2.76E-09,  avg # of iterations =  3.6

     total cpu time spent up to now is   122369.9 secs

     total energy              =   -7120.80223015 Ry
     Harris-Foulkes estimate   =   -7120.80558048 Ry
     estimated scf accuracy    <       0.00036252 Ry

     total magnetization       =     0.00 Bohr mag/cell
     absolute magnetization    =    54.26 Bohr mag/cell

     iteration #127     ecut=   350.00 Ry     beta= 0.20
     Davidson diagonalization with overlap
     ethr =  2.76E-09,  avg # of iterations =  4.5

     total cpu time spent up to now is   123801.9 secs

     total energy              =   -7120.80260073 Ry
     Harris-Foulkes estimate   =   -7120.80491039 Ry
     estimated scf accuracy    <       0.00065396 Ry

     total magnetization       =    -0.00 Bohr mag/cell
     absolute magnetization    =    54.26 Bohr mag/cell

     iteration #128     ecut=   350.00 Ry     beta= 0.20
     Davidson diagonalization with overlap
     ethr =  2.76E-09,  avg # of iterations =  4.5

     total cpu time spent up to now is   125247.6 secs

     total energy              =   -7120.80312833 Ry
     Harris-Foulkes estimate   =   -7120.80573804 Ry
     estimated scf accuracy    <       0.00018466 Ry

     total magnetization       =     0.00 Bohr mag/cell
     absolute magnetization    =    54.26 Bohr mag/cell

     iteration #129     ecut=   350.00 Ry     beta= 0.20
     Davidson diagonalization with overlap
     ethr =  2.76E-09,  avg # of iterations =  4.5

     total cpu time spent up to now is   126694.8 secs

     total energy              =   -7120.80610421 Ry
     Harris-Foulkes estimate   =   -7120.80625141 Ry
     estimated scf accuracy    <       0.00012194 Ry

     total magnetization       =     0.00 Bohr mag/cell
     absolute magnetization    =    54.27 Bohr mag/cell

     iteration #130     ecut=   350.00 Ry     beta= 0.20
     Davidson diagonalization with overlap
     ethr =  2.76E-09,  avg # of iterations =  2.6

     total cpu time spent up to now is   127624.6 secs

     total energy              =   -7120.80597910 Ry
     Harris-Foulkes estimate   =   -7120.80618920 Ry
     estimated scf accuracy    <       0.00011255 Ry

     total magnetization       =    -0.00 Bohr mag/cell
     absolute magnetization    =    54.26 Bohr mag/cell

     iteration #131     ecut=   350.00 Ry     beta= 0.20
     Davidson diagonalization with overlap
     ethr =  2.76E-09,  avg # of iterations =  3.4

     total cpu time spent up to now is   128594.9 secs

     total energy              =   -7120.80550504 Ry
     Harris-Foulkes estimate   =   -7120.80609052 Ry
     estimated scf accuracy    <       0.00012470 Ry

     total magnetization       =    -0.00 Bohr mag/cell
     absolute magnetization    =    54.26 Bohr mag/cell

     iteration #132     ecut=   350.00 Ry     beta= 0.20
     Davidson diagonalization with overlap
     ethr =  2.76E-09,  avg # of iterations =  3.9

     total cpu time spent up to now is   129776.9 secs

     total energy              =   -7120.80587650 Ry
     Harris-Foulkes estimate   =   -7120.80628157 Ry
     estimated scf accuracy    <       0.00016899 Ry

     total magnetization       =    -0.00 Bohr mag/cell
     absolute magnetization    =    54.27 Bohr mag/cell

     iteration #133     ecut=   350.00 Ry     beta= 0.20
     Davidson diagonalization with overlap
     ethr =  2.76E-09,  avg # of iterations =  3.5

     total cpu time spent up to now is   130855.4 secs

     total energy              =   -7120.80620708 Ry
     Harris-Foulkes estimate   =   -7120.80617930 Ry
     estimated scf accuracy    <       0.00012065 Ry

     total magnetization       =     0.00 Bohr mag/cell
     absolute magnetization    =    54.26 Bohr mag/cell

     iteration #134     ecut=   350.00 Ry     beta= 0.20
     Davidson diagonalization with overlap
     ethr =  2.76E-09,  avg # of iterations =  2.0

     total cpu time spent up to now is   131646.1 secs

     total energy              =   -7120.80610940 Ry
     Harris-Foulkes estimate   =   -7120.80620967 Ry
     estimated scf accuracy    <       0.00008487 Ry

     total magnetization       =    -0.00 Bohr mag/cell
     absolute magnetization    =    54.26 Bohr mag/cell

     iteration #135     ecut=   350.00 Ry     beta= 0.20
     Davidson diagonalization with overlap
     ethr =  2.76E-09,  avg # of iterations =  3.5

     total cpu time spent up to now is   132646.6 secs

     total energy              =   -7120.80616162 Ry
     Harris-Foulkes estimate   =   -7120.80622918 Ry
     estimated scf accuracy    <       0.00018300 Ry

     total magnetization       =    -0.00 Bohr mag/cell
     absolute magnetization    =    54.27 Bohr mag/cell

     iteration #136     ecut=   350.00 Ry     beta= 0.20
     Davidson diagonalization with overlap
     ethr =  2.76E-09,  avg # of iterations =  3.5

     total cpu time spent up to now is   133709.1 secs

     total energy              =   -7120.79019732 Ry
     Harris-Foulkes estimate   =   -7120.80644419 Ry
     estimated scf accuracy    <       0.00005599 Ry

     total magnetization       =    -0.00 Bohr mag/cell
     absolute magnetization    =    54.27 Bohr mag/cell

     iteration #137     ecut=   350.00 Ry     beta= 0.20
     Davidson diagonalization with overlap
     ethr =  2.76E-09,  avg # of iterations =  5.2

     total cpu time spent up to now is   135418.7 secs

     total energy              =   -7120.80577836 Ry
     Harris-Foulkes estimate   =   -7120.80702423 Ry
     estimated scf accuracy    <       0.00052558 Ry

     total magnetization       =     0.00 Bohr mag/cell
     absolute magnetization    =    54.29 Bohr mag/cell

     iteration #138     ecut=   350.00 Ry     beta= 0.20
     Davidson diagonalization with overlap
     ethr =  2.76E-09,  avg # of iterations =  4.5

     total cpu time spent up to now is   136795.3 secs

     total energy              =   -7120.80582054 Ry
     Harris-Foulkes estimate   =   -7120.80714108 Ry
     estimated scf accuracy    <       0.00002463 Ry

     total magnetization       =    -0.00 Bohr mag/cell
     absolute magnetization    =    54.28 Bohr mag/cell

     iteration #139     ecut=   350.00 Ry     beta= 0.20
     Davidson diagonalization with overlap
     ethr =  2.76E-09,  avg # of iterations =  4.4

     total cpu time spent up to now is   138036.9 secs

     total energy              =   -7120.80688067 Ry
     Harris-Foulkes estimate   =   -7120.80691515 Ry
     estimated scf accuracy    <       0.00002805 Ry

     total magnetization       =    -0.00 Bohr mag/cell
     absolute magnetization    =    54.27 Bohr mag/cell

     iteration #140     ecut=   350.00 Ry     beta= 0.20
     Davidson diagonalization with overlap
     ethr =  2.76E-09,  avg # of iterations =  2.4

     total cpu time spent up to now is   138888.6 secs

     total energy              =   -7120.80684707 Ry
     Harris-Foulkes estimate   =   -7120.80689856 Ry
     estimated scf accuracy    <       0.00003611 Ry

     total magnetization       =    -0.00 Bohr mag/cell
     absolute magnetization    =    54.27 Bohr mag/cell

     iteration #141     ecut=   350.00 Ry     beta= 0.20
     Davidson diagonalization with overlap
     ethr =  2.76E-09,  avg # of iterations =  2.4

     total cpu time spent up to now is   139719.5 secs

     total energy              =   -7120.80686318 Ry
     Harris-Foulkes estimate   =   -7120.80685657 Ry
     estimated scf accuracy    <       0.00009376 Ry

     total magnetization       =     0.00 Bohr mag/cell
     absolute magnetization    =    54.27 Bohr mag/cell

     iteration #142     ecut=   350.00 Ry     beta= 0.20
     Davidson diagonalization with overlap
     ethr =  2.76E-09,  avg # of iterations =  2.1

     total cpu time spent up to now is   140577.3 secs

     total energy              =   -7120.80685393 Ry
     Harris-Foulkes estimate   =   -7120.80688319 Ry
     estimated scf accuracy    <       0.00003860 Ry

     total magnetization       =     0.00 Bohr mag/cell
     absolute magnetization    =    54.27 Bohr mag/cell

     iteration #143     ecut=   350.00 Ry     beta= 0.20
     Davidson diagonalization with overlap
     ethr =  2.76E-09,  avg # of iterations =  2.3

     total cpu time spent up to now is   141398.0 secs

     total energy              =   -7120.80688655 Ry
     Harris-Foulkes estimate   =   -7120.80687192 Ry
     estimated scf accuracy    <       0.00003376 Ry

     total magnetization       =    -0.00 Bohr mag/cell
     absolute magnetization    =    54.27 Bohr mag/cell

     iteration #144     ecut=   350.00 Ry     beta= 0.20
     Davidson diagonalization with overlap
     ethr =  2.76E-09,  avg # of iterations =  2.5

     total cpu time spent up to now is   142255.3 secs

     total energy              =   -7120.80685363 Ry
     Harris-Foulkes estimate   =   -7120.80692080 Ry
     estimated scf accuracy    <       0.00002439 Ry

     total magnetization       =     0.00 Bohr mag/cell
     absolute magnetization    =    54.27 Bohr mag/cell

     iteration #145     ecut=   350.00 Ry     beta= 0.20
     Davidson diagonalization with overlap
     ethr =  2.76E-09,  avg # of iterations =  2.8

     total cpu time spent up to now is   143154.3 secs

     total energy              =   -7120.80692199 Ry
     Harris-Foulkes estimate   =   -7120.80690338 Ry
     estimated scf accuracy    <       0.00005066 Ry

     total magnetization       =    -0.00 Bohr mag/cell
     absolute magnetization    =    54.27 Bohr mag/cell

     iteration #146     ecut=   350.00 Ry     beta= 0.20
     Davidson diagonalization with overlap
     ethr =  2.76E-09,  avg # of iterations =  2.0

     total cpu time spent up to now is   143963.5 secs

     total energy              =   -7120.78952612 Ry
     Harris-Foulkes estimate   =   -7120.80693494 Ry
     estimated scf accuracy    <       0.00004111 Ry

     total magnetization       =    -0.00 Bohr mag/cell
     absolute magnetization    =    54.27 Bohr mag/cell

     iteration #147     ecut=   350.00 Ry     beta= 0.20
     Davidson diagonalization with overlap
     ethr =  2.76E-09,  avg # of iterations =  5.2

     total cpu time spent up to now is   145670.0 secs

     total energy              =   -7120.80449319 Ry
     Harris-Foulkes estimate   =   -7120.80759976 Ry
     estimated scf accuracy    <       0.00017664 Ry

     total magnetization       =     0.00 Bohr mag/cell
     absolute magnetization    =    54.30 Bohr mag/cell

     iteration #148     ecut=   350.00 Ry     beta= 0.20
     Davidson diagonalization with overlap
     ethr =  2.76E-09,  avg # of iterations =  4.9

     total cpu time spent up to now is   147129.0 secs

     total energy              =   -7120.79562710 Ry
     Harris-Foulkes estimate   =   -7120.80741063 Ry
     estimated scf accuracy    <       0.00005090 Ry

     total magnetization       =    -0.00 Bohr mag/cell
     absolute magnetization    =    54.28 Bohr mag/cell

     iteration #149     ecut=   350.00 Ry     beta= 0.20
     Davidson diagonalization with overlap
     ethr =  2.76E-09,  avg # of iterations =  5.1

     total cpu time spent up to now is   148748.6 secs

     total energy              =   -7120.80663354 Ry
     Harris-Foulkes estimate   =   -7120.80674997 Ry
     estimated scf accuracy    <       0.00003629 Ry

     total magnetization       =     0.00 Bohr mag/cell
     absolute magnetization    =    54.27 Bohr mag/cell

     iteration #150     ecut=   350.00 Ry     beta= 0.20
     Davidson diagonalization with overlap
     ethr =  2.76E-09,  avg # of iterations =  3.5

     total cpu time spent up to now is   149774.4 secs

     total energy              =   -7120.80680892 Ry
     Harris-Foulkes estimate   =   -7120.80683294 Ry
     estimated scf accuracy    <       0.00005642 Ry

     total magnetization       =     0.00 Bohr mag/cell
     absolute magnetization    =    54.27 Bohr mag/cell

     iteration #151     ecut=   350.00 Ry     beta= 0.20
     Davidson diagonalization with overlap
     ethr =  2.76E-09,  avg # of iterations =  2.5

     total cpu time spent up to now is   150671.6 secs

     total energy              =   -7120.80686508 Ry
     Harris-Foulkes estimate   =   -7120.80685473 Ry
     estimated scf accuracy    <       0.00005443 Ry

     total magnetization       =    -0.00 Bohr mag/cell
     absolute magnetization    =    54.27 Bohr mag/cell

     iteration #152     ecut=   350.00 Ry     beta= 0.20
     Davidson diagonalization with overlap
     ethr =  2.76E-09,  avg # of iterations =  2.0

     total cpu time spent up to now is   151475.3 secs

     total energy              =   -7120.80567548 Ry
     Harris-Foulkes estimate   =   -7120.80687517 Ry
     estimated scf accuracy    <       0.00004984 Ry

     total magnetization       =    -0.00 Bohr mag/cell
     absolute magnetization    =    54.27 Bohr mag/cell

     iteration #153     ecut=   350.00 Ry     beta= 0.20
     Davidson diagonalization with overlap
     ethr =  2.76E-09,  avg # of iterations =  4.5

     total cpu time spent up to now is   152799.6 secs

     total energy              =   -7120.80256998 Ry
     Harris-Foulkes estimate   =   -7120.80714099 Ry
     estimated scf accuracy    <       0.00003881 Ry

     total magnetization       =     0.00 Bohr mag/cell
     absolute magnetization    =    54.28 Bohr mag/cell

     iteration #154     ecut=   350.00 Ry     beta= 0.20
     Davidson diagonalization with overlap
     ethr =  2.76E-09,  avg # of iterations =  4.5

     total cpu time spent up to now is   154262.6 secs

     total energy              =   -7120.80662398 Ry
     Harris-Foulkes estimate   =   -7120.80668607 Ry
     estimated scf accuracy    <       0.00004839 Ry

     total magnetization       =     0.00 Bohr mag/cell
     absolute magnetization    =    54.27 Bohr mag/cell

     iteration #155     ecut=   350.00 Ry     beta= 0.20
     Davidson diagonalization with overlap
     ethr =  2.76E-09,  avg # of iterations =  2.2

     total cpu time spent up to now is   155101.1 secs

     total energy              =   -7120.80664701 Ry
     Harris-Foulkes estimate   =   -7120.80664859 Ry
     estimated scf accuracy    <       0.00005565 Ry

     total magnetization       =    -0.00 Bohr mag/cell
     absolute magnetization    =    54.27 Bohr mag/cell

     iteration #156     ecut=   350.00 Ry     beta= 0.20
     Davidson diagonalization with overlap
     ethr =  2.76E-09,  avg # of iterations =  1.0

     total cpu time spent up to now is   155874.3 secs

     total energy              =   -7120.79992058 Ry
     Harris-Foulkes estimate   =   -7120.80664708 Ry
     estimated scf accuracy    <       0.00005583 Ry

     total magnetization       =    -0.00 Bohr mag/cell
     absolute magnetization    =    54.27 Bohr mag/cell

     iteration #157     ecut=   350.00 Ry     beta= 0.20
     Davidson diagonalization with overlap
     ethr =  2.76E-09,  avg # of iterations =  4.9

     total cpu time spent up to now is   157436.5 secs

     total energy              =   -7120.80403735 Ry
     Harris-Foulkes estimate   =   -7120.80726088 Ry
     estimated scf accuracy    <       0.00002307 Ry

     total magnetization       =     0.00 Bohr mag/cell
     absolute magnetization    =    54.28 Bohr mag/cell

     iteration #158     ecut=   350.00 Ry     beta= 0.20
     Davidson diagonalization with overlap
     ethr =  2.76E-09,  avg # of iterations =  4.5

     total cpu time spent up to now is   158888.8 secs

     total energy              =   -7120.79284205 Ry
     Harris-Foulkes estimate   =   -7120.80758048 Ry
     estimated scf accuracy    <       0.00005240 Ry

     total magnetization       =     0.00 Bohr mag/cell
     absolute magnetization    =    54.29 Bohr mag/cell

     iteration #159     ecut=   350.00 Ry     beta= 0.20
     Davidson diagonalization with overlap

     Maximum CPU time exceeded

     max_seconds     =  160000.00
     elapsed seconds =  160059.16
     Calculation stopped in k-point loop, point #    12
     Calculation stopped in scf loop at iteration #   158

     Writing output data file pwscf.save/
 
     init_run     :    340.28s CPU    348.28s WALL (       1 calls)
     electrons    : 154910.49s CPU 159810.78s WALL (       1 calls)

     Called by init_run:
     wfcinit      :    328.13s CPU    335.72s WALL (       1 calls)
     potinit      :      5.25s CPU      5.50s WALL (       1 calls)
     hinit0       :      3.61s CPU      3.69s WALL (       1 calls)

     Called by electrons:
     c_bands      : 135320.29s CPU 142810.79s WALL (     159 calls)
     sum_band     :  19533.83s CPU  19798.69s WALL (     158 calls)
     v_of_rho     :     17.57s CPU     18.56s WALL (     159 calls)
     mix_rho      :     48.56s CPU     61.36s WALL (     158 calls)

     Called by c_bands:
     init_us_2    :    213.53s CPU    249.95s WALL (    5100 calls)
     cegterg      : 134708.92s CPU 138783.11s WALL (    2540 calls)

     Called by sum_band:

     Called by *egterg:
     h_psi        :  91282.05s CPU  92991.63s WALL (   10566 calls)
     g_psi        :    186.29s CPU    189.92s WALL (    8010 calls)
     cdiaghg      :   5014.74s CPU   5176.29s WALL (   10550 calls)

     Called by h_psi:
     h_psi:pot    :  84292.87s CPU  85455.14s WALL (   10566 calls)
     h_psi:calbec :   4660.27s CPU   4746.42s WALL (   10566 calls)
     vloc_psi     :  75059.65s CPU  76059.41s WALL (   10566 calls)
     add_vuspsi   :   4572.74s CPU   4649.18s WALL (   10566 calls)
     vhpsi        :   6831.83s CPU   6919.50s WALL (   10566 calls)

     General routines
     calbec       :   6442.30s CPU   6559.16s WALL (   23676 calls)
     fft          :     25.95s CPU     26.58s WALL (     794 calls)
     ffts         :      8.24s CPU      8.33s WALL (     316 calls)
     fftw         :  77007.09s CPU  77966.78s WALL ( 6605772 calls)
     davcio       :      2.59s CPU   2353.27s WALL (      50 calls)
 
     Parallel routines
     fft_scatt_xy :  18914.60s CPU  19152.09s WALL ( 6606882 calls)
     fft_scatt_yz :  18155.07s CPU  18379.52s WALL ( 6606882 calls)

     Hubbard U routines
     new_ns       :    687.08s CPU    705.44s WALL (     158 calls)
     vhpsi        :   6831.83s CPU   6919.50s WALL (   10566 calls)
 
     PWSCF        :   1d19h 7m CPU   1d21h17m WALL

 
   This run was terminated on:   9: 2:12  13Oct2021            

=------------------------------------------------------------------------------=
   JOB DONE.
=------------------------------------------------------------------------------=
