
     Program PWSCF v.6.4.1 starts on 13Oct2021 at 18:20:24 

     This program is part of the open-source Quantum ESPRESSO suite
     for quantum simulation of materials; please cite
         "P. Giannozzi et al., J. Phys.:Condens. Matter 21 395502 (2009);
         "P. Giannozzi et al., J. Phys.:Condens. Matter 29 465901 (2017);
          URL http://www.quantum-espresso.org", 
     in publications or presentations arising from this work. More details at
     http://www.quantum-espresso.org/quote

     Parallel version (MPI & OpenMP), running on      36 processor cores
     Number of MPI processes:                36
     Threads/MPI process:                     1

     MPI processes distributed on     1 nodes
     R & G space division:  proc/nbgrp/npool/nimage =      36
     Reading input from scf.in

     Current dimensions of program PWSCF are:
     Max number of different atomic species (ntypx) = 10
     Max number of k-points (npk) =  40000
     Max angular momentum in pseudopotentials (lmaxx) =  3

     Atomic positions and unit cell read from directory:
     pwscf_output/pwscf.save/
 
     Message from routine readpp:
     file pwscf_output/pwscf.save/Co.opt.upf not found
     Message from routine readpp:
     file pwscf_output/pwscf.save/Co.opt.upf not found
     Message from routine readpp:
     file pwscf_output/pwscf.save/La.ropt1.upf not found
     Message from routine readpp:
     file pwscf_output/pwscf.save/Mn.opt.upf not found
     Message from routine readpp:
     file pwscf_output/pwscf.save/O.opt.upf not found

     IMPORTANT: XC functional enforced from input :
     Exchange-correlation      = LDA ( 1  1  0  0 0 0)
     Any further DFT definition will be discarded
     Please, verify this is what you really want


     Subspace diagonalization in iterative solution of the eigenvalue problem:
     one sub-group per band group will be used
     scalapack distributed-memory algorithm (size of sub-group:  4*  4 procs)

 
     Parallelization info
     --------------------
     sticks:   dense  smooth     PW     G-vecs:    dense   smooth      PW
     Min        1125    1125    289               160176   160176   20844
     Max        1126    1126    290               160182   160182   20847
     Sum       40533   40533  10413              5766487  5766487  750431
 


     bravais-lattice index     =            0
     lattice parameter (alat)  =      18.3955  a.u.
     unit-cell volume          =    6518.7163 (a.u.)^3
     number of atoms/cell      =           80
     number of atomic types    =            5
     number of electrons       =       734.00
     number of Kohn-Sham states=          440
     kinetic-energy cutoff     =     350.0000  Ry
     charge density cutoff     =    1400.0000  Ry
     convergence threshold     =      1.0E-05
     mixing beta               =       0.1000
     number of iterations used =            8  plain     mixing
     Exchange-correlation      = LDA ( 1  1  0  0 0 0)

     celldm(1)=  18.395514  celldm(2)=   0.000000  celldm(3)=   0.000000
     celldm(4)=   0.000000  celldm(5)=   0.000000  celldm(6)=   0.000000

     crystal axes: (cart. coord. in units of alat)
               a(1) = (   1.000000   0.000000   0.000000 )  
               a(2) = (   0.333333   1.075078   0.000000 )  
               a(3) = (   0.166667  -0.082572   0.974062 )  

     reciprocal axes: (cart. coord. in units 2 pi/alat)
               b(1) = (  1.000000 -0.310055 -0.197388 )  
               b(2) = (  0.000000  0.930165  0.078850 )  
               b(3) = (  0.000000  0.000000  1.026629 )  


     PseudoPot. # 1 for Co read from file:
     ./Co.opt.upf
     MD5 check sum: cbea422ea0772e228e39f0fc3ccfb1ba
     Pseudo is Norm-conserving, Zval = 17.0
     Generated by new atomic code, or converted to UPF format
     Using radial grid of 1161 points,  2 beta functions with: 
                l(1) =   0
                l(2) =   2

     PseudoPot. # 2 for Co read from file:
     ./Co.opt.upf
     MD5 check sum: cbea422ea0772e228e39f0fc3ccfb1ba
     Pseudo is Norm-conserving, Zval = 17.0
     Generated by new atomic code, or converted to UPF format
     Using radial grid of 1161 points,  2 beta functions with: 
                l(1) =   0
                l(2) =   2

     PseudoPot. # 3 for La read from file:
     ./La.ropt1.upf
     MD5 check sum: afd03827907f86c9752dba134992df7c
     Pseudo is Norm-conserving, Zval = 11.0
     Generated by new atomic code, or converted to UPF format
     Using radial grid of 1180 points,  2 beta functions with: 
                l(1) =   0
                l(2) =   2

     PseudoPot. # 4 for Mn read from file:
     ./Mn.opt.upf
     MD5 check sum: 5ce47c60d595b590a57a34cb5b635794
     Pseudo is Norm-conserving, Zval = 15.0
     Generated by new atomic code, or converted to UPF format
     Using radial grid of 1159 points,  2 beta functions with: 
                l(1) =   0
                l(2) =   2

     PseudoPot. # 5 for O  read from file:
     ./O.opt.upf
     MD5 check sum: 0b670aeee1f35195f09134313df81f8f
     Pseudo is Norm-conserving, Zval =  6.0
     Generated by new atomic code, or converted to UPF format
     Using radial grid of 1130 points,  1 beta functions with: 
                l(1) =   1

     atomic species   valence    mass     pseudopotential
        Co1           17.00    58.93300     Co( 1.00)
        Co2           17.00    58.93300     Co( 1.00)
        La            11.00   138.92000     La( 1.00)
        Mn            15.00    54.93800     Mn( 1.00)
        O              6.00    15.99900     O ( 1.00)

     Starting magnetic structure 
     atomic species   magnetization
        Co1          0.500
        Co2         -0.500
        La           0.000
        Mn          -0.500
        O            0.000


     Simplified LDA+U calculation (l_max = 2) with parameters (eV):
     atomic species    L          U    alpha       J0     beta
        Co1            2     6.0000   0.0000   0.0000   0.0000
        Co2            2     6.0000   0.0000   0.0000   0.0000
        Mn             2     3.0000   0.0000   0.0000   0.0000



     No symmetry found



   Cartesian axes

     site n.     atom                  positions (alat units)
         1           La  tau(   1) = (   1.0000000   0.2868835   0.1826366  )
         2           La  tau(   2) = (   1.0000000  -0.0231717   0.6696675  )
         3           La  tau(   3) = (   0.6666667   0.3593395   0.9131830  )
         4           La  tau(   4) = (   1.1666667   0.8244222   0.1826366  )
         5           La  tau(   5) = (   1.1666667   0.5143671   0.6696675  )
         6           La  tau(   6) = (   0.8333333   0.8968783   0.9131830  )
         7           La  tau(   7) = (   0.6666667   0.6693947   0.4261521  )
         8           La  tau(   8) = (   0.5000000   0.1318558   0.4261521  )
         9           La  tau(   9) = (   1.0000000   0.8606501   0.5479098  )
        10           La  tau(  10) = (   0.8333333   0.6331666   0.0608789  )
        11           La  tau(  11) = (   0.5000000   1.0156777   0.3043943  )
        12           La  tau(  12) = (   0.8333333   0.3231114   0.5479098  )
        13           La  tau(  13) = (   0.6666667   0.0956278   0.0608789  )
        14           La  tau(  14) = (   0.3333333   0.4781390   0.3043943  )
        15           La  tau(  15) = (   0.3333333   0.1680839   0.7914253  )
        16           La  tau(  16) = (   0.5000000   0.7056226   0.7914253  )
        17           Co1 tau(  17) = (   1.0000000   0.5737668   0.3652732  )
        18           Co1 tau(  18) = (   1.0000000   0.2637117   0.8523041  )
        19           Co1 tau(  19) = (   0.5000000   0.7287944   0.1217577  )
        20           Co1 tau(  20) = (   0.8333333   0.0362280   0.3652732  )
        21           Co1 tau(  21) = (   1.1666666   0.8012504   0.8523041  )
        22           Co1 tau(  22) = (   0.3333333   0.1912556   0.1217577  )
        23           Co1 tau(  23) = (   0.6666666   0.9562780   0.6087887  )
        24           Co1 tau(  24) = (   0.5000000   0.4187392   0.6087887  )
        25           Co2 tau(  25) = (   0.0000000   0.0000000   0.0000000  )
        26           Co2 tau(  26) = (   0.3333333   0.7650224   0.4870309  )
        27           Co2 tau(  27) = (   0.6666667   0.0724561   0.7305464  )
        28           Co2 tau(  28) = (   0.1666667   0.5375388   0.0000000  )
        29           Co2 tau(  29) = (   0.1666667   0.2274836   0.4870309  )
        30           Co2 tau(  30) = (   0.8333333   0.6099948   0.7305464  )
        31           Co2 tau(  31) = (   0.6666667   0.3825112   0.2435155  )
        32           Mn  tau(  32) = (   0.8333333   0.9200500   0.2435155  )
        33           O   tau(  33) = (   1.0491919   0.5662381   0.1660092  )
        34           O   tau(  34) = (   1.0491919   0.2561830   0.6530401  )
        35           O   tau(  35) = (   0.7158585   0.6386942   0.8965556  )
        36           O   tau(  36) = (   0.8825252   0.0286993   0.1660092  )
        37           O   tau(  37) = (   1.2158585   0.7937217   0.6530401  )
        38           O   tau(  38) = (   0.5491919   0.1011554   0.8965556  )
        39           O   tau(  39) = (   0.7158585   0.9487493   0.4095247  )
        40           O   tau(  40) = (   0.5491919   0.4112105   0.4095247  )
        41           O   tau(  41) = (   0.9508081   0.5812955   0.5645372  )
        42           O   tau(  42) = (   0.7841414   0.3538119   0.0775063  )
        43           O   tau(  43) = (   0.4508081   0.7363230   0.3210217  )
        44           O   tau(  44) = (   0.7841414   0.0437567   0.5645372  )
        45           O   tau(  45) = (   0.9508081   0.8913506   0.0775063  )
        46           O   tau(  46) = (   0.2841414   0.1987843   0.3210217  )
        47           O   tau(  47) = (   0.6174748   0.9638067   0.8080527  )
        48           O   tau(  48) = (   0.4508081   0.4262679   0.8080527  )
        49           O   tau(  49) = (   1.1174742   0.4112111   0.4095238  )
        50           O   tau(  50) = (   1.1174742   0.1011560   0.8965548  )
        51           O   tau(  51) = (   0.6174741   0.5662387   0.1660084  )
        52           O   tau(  52) = (   1.2841409   0.9487499   0.4095238  )
        53           O   tau(  53) = (   1.2841409   0.6386947   0.8965548  )
        54           O   tau(  54) = (   0.4508075   0.0286999   0.1660084  )
        55           O   tau(  55) = (   0.7841408   0.7937223   0.6530393  )
        56           O   tau(  56) = (   0.6174741   0.2561835   0.6530393  )
        57           O   tau(  57) = (   0.8825258   0.7363225   0.3210225  )
        58           O   tau(  58) = (   0.8825258   0.4262673   0.8080535  )
        59           O   tau(  59) = (   0.3825258   0.8913500   0.0775071  )
        60           O   tau(  60) = (   0.7158592   0.1987837   0.3210225  )
        61           O   tau(  61) = (   1.0491925   0.9638061   0.8080535  )
        62           O   tau(  62) = (   0.2158592   0.3538113   0.0775071  )
        63           O   tau(  63) = (   0.2158592   0.0437561   0.5645380  )
        64           O   tau(  64) = (   0.3825258   0.5812949   0.5645380  )
        65           O   tau(  65) = (   0.8333339   0.4569677   0.3376499  )
        66           O   tau(  66) = (   0.8333339   0.1469125   0.8246808  )
        67           O   tau(  67) = (   0.3333339   0.6119952   0.0941344  )
        68           O   tau(  68) = (   1.0000005   0.9945064   0.3376499  )
        69           O   tau(  69) = (   1.0000005   0.6844513   0.8246808  )
        70           O   tau(  70) = (   0.1666672   0.0744564   0.0941344  )
        71           O   tau(  71) = (   0.5000005   0.8394788   0.5811654  )
        72           O   tau(  72) = (   0.3333339   0.3019401   0.5811654  )
        73           O   tau(  73) = (   1.1666660   0.6905658   0.3928965  )
        74           O   tau(  74) = (   1.1666660   0.3805107   0.8799274  )
        75           O   tau(  75) = (   0.6666661   0.8455934   0.1493811  )
        76           O   tau(  76) = (   0.9999994   0.1530271   0.3928965  )
        77           O   tau(  77) = (   1.3333327   0.9180494   0.8799274  )
        78           O   tau(  78) = (   0.4999994   0.3080546   0.1493811  )
        79           O   tau(  79) = (   0.4999994  -0.0020005   0.6364120  )
        80           O   tau(  80) = (   0.6666660   0.5355382   0.6364120  )

     number of k points=     8  Methfessel-Paxton smearing, width (Ry)=  0.0100
                       cart. coord. in units 2pi/alat
        k(    1) = (   0.5000000   0.3100552   0.4540455), wk =   0.1250000
        k(    2) = (   0.0000000   0.4650827   0.5527396), wk =   0.1250000
        k(    3) = (   0.5000000  -0.1550276   0.4146203), wk =   0.1250000
        k(    4) = (   0.0000000   0.0000000   0.5133144), wk =   0.1250000
        k(    5) = (   0.5000000   0.3100552  -0.0592689), wk =   0.1250000
        k(    6) = (   0.0000000   0.4650827   0.0394252), wk =   0.1250000
        k(    7) = (   0.5000000  -0.1550276  -0.0986941), wk =   0.1250000
        k(    8) = (   0.0000000   0.0000000   0.0000000), wk =   0.1250000

     Dense  grid:  5766487 G-vectors     FFT dimensions: ( 225, 250, 225)

     Estimated max dynamical RAM per process >       3.98 GB

     Estimated total dynamical RAM >     143.20 GB
     Generating pointlists ...
     new r_m :   0.0847 (alat units)  1.5585 (a.u.) for type    1
     new r_m :   0.0847 (alat units)  1.5585 (a.u.) for type    2
     new r_m :   0.1028 (alat units)  1.8914 (a.u.) for type    3
     new r_m :   0.0847 (alat units)  1.5585 (a.u.) for type    4
     new r_m :   0.0847 (alat units)  1.5585 (a.u.) for type    5

     The initial density is read from file :
     pwscf_output/pwscf.save/charge-density

     Number of +U iterations with fixed ns =  0
     Starting occupations:
 --- enter write_ns ---
 LDA+U parameters:
U( 1)     =  6.00000000
alpha( 1) =  0.00000000
U( 2)     =  6.00000000
alpha( 2) =  0.00000000
U( 4)     =  3.00000000
alpha( 4) =  0.00000000
atom   17   Tr[ns(na)] (up, down, total) =   4.89264  1.83665  6.72929
   spin  1
    eigenvalues: 
  0.973  0.978  0.979  0.980  0.982
    eigenvectors:
  0.001  0.604  0.222  0.120  0.053
  0.017  0.003  0.353  0.443  0.183
  0.616  0.021  0.064  0.114  0.185
  0.365  0.073  0.043  0.320  0.200
  0.001  0.299  0.318  0.003  0.379
    occupations:
  0.979  0.001  0.000 -0.000  0.001
  0.001  0.980 -0.001 -0.000  0.001
  0.000 -0.001  0.976 -0.004 -0.001
 -0.000 -0.000 -0.004  0.978  0.001
  0.001  0.001 -0.001  0.001  0.980
   spin  2
    eigenvalues: 
  0.087  0.104  0.310  0.387  0.948
    eigenvectors:
  0.143  0.049  0.544  0.264  0.000
  0.721  0.049  0.055  0.149  0.027
  0.063  0.289  0.027  0.031  0.590
  0.006  0.518  0.072  0.020  0.383
  0.067  0.096  0.302  0.535  0.000
    occupations:
  0.288  0.096 -0.008 -0.024  0.021
  0.096  0.168  0.098  0.087  0.055
 -0.008  0.098  0.615  0.386 -0.066
 -0.024  0.087  0.386  0.448  0.052
  0.021  0.055 -0.066  0.052  0.317
atomic mag. moment =     3.055984
atom   18   Tr[ns(na)] (up, down, total) =   4.89380  1.82562  6.71942
   spin  1
    eigenvalues: 
  0.974  0.979  0.979  0.981  0.981
    eigenvectors:
  0.002  0.629  0.199  0.057  0.113
  0.003  0.027  0.123  0.804  0.043
  0.662  0.065  0.010  0.029  0.233
  0.332  0.100  0.021  0.018  0.528
  0.000  0.178  0.648  0.092  0.082
    occupations:
  0.979  0.001  0.000 -0.001  0.000
  0.001  0.981 -0.000 -0.000  0.000
  0.000 -0.000  0.976 -0.003 -0.001
 -0.001 -0.000 -0.003  0.979  0.001
  0.000  0.000 -0.001  0.001  0.979
   spin  2
    eigenvalues: 
  0.093  0.093  0.336  0.347  0.957
    eigenvectors:
  0.007  0.178  0.773  0.039  0.003
  0.000  0.797  0.134  0.068  0.002
  0.265  0.000  0.004  0.063  0.668
  0.553  0.002  0.036  0.082  0.327
  0.175  0.023  0.053  0.748  0.001
    occupations:
  0.293  0.093  0.040  0.001 -0.004
  0.093  0.144  0.017  0.022  0.038
  0.040  0.017  0.687  0.383 -0.042
  0.001  0.022  0.383  0.405  0.085
 -0.004  0.038 -0.042  0.085  0.297
atomic mag. moment =     3.068175
atom   19   Tr[ns(na)] (up, down, total) =   4.89245  1.83695  6.72940
   spin  1
    eigenvalues: 
  0.973  0.978  0.979  0.981  0.982
    eigenvectors:
  0.015  0.723  0.048  0.041  0.173
  0.001  0.088  0.002  0.892  0.018
  0.619  0.031  0.193  0.004  0.153
  0.364  0.004  0.236  0.012  0.384
  0.001  0.154  0.521  0.052  0.272
    occupations:
  0.979  0.001 -0.000 -0.001 -0.001
  0.001  0.980  0.000  0.000  0.000
 -0.000  0.000  0.976 -0.003 -0.000
 -0.001  0.000 -0.003  0.978  0.001
 -0.001  0.000 -0.000  0.001  0.980
   spin  2
    eigenvalues: 
  0.090  0.100  0.319  0.378  0.951
    eigenvectors:
  0.009  0.133  0.574  0.275  0.010
  0.008  0.792  0.196  0.000  0.004
  0.301  0.005  0.018  0.037  0.639
  0.529  0.005  0.009  0.109  0.347
  0.153  0.066  0.202  0.579  0.000
    occupations:
  0.310  0.069  0.073  0.016 -0.034
  0.069  0.146 -0.057 -0.023  0.041
  0.073 -0.057  0.654  0.384 -0.047
  0.016 -0.023  0.384  0.422  0.089
 -0.034  0.041 -0.047  0.089  0.304
atomic mag. moment =     3.055495
atom   20   Tr[ns(na)] (up, down, total) =   4.89245  1.83700  6.72945
   spin  1
    eigenvalues: 
  0.973  0.978  0.979  0.981  0.982
    eigenvectors:
  0.017  0.731  0.042  0.036  0.174
  0.002  0.080  0.002  0.896  0.020
  0.628  0.036  0.188  0.004  0.144
  0.352  0.004  0.253  0.013  0.378
  0.001  0.148  0.516  0.052  0.283
    occupations:
  0.979  0.001 -0.000 -0.001 -0.001
  0.001  0.980  0.000  0.000  0.000
 -0.000  0.000  0.976 -0.003 -0.000
 -0.001  0.000 -0.003  0.978  0.001
 -0.001  0.000 -0.000  0.001  0.980
   spin  2
    eigenvalues: 
  0.089  0.100  0.318  0.379  0.950
    eigenvectors:
  0.009  0.132  0.577  0.270  0.011
  0.009  0.789  0.196  0.000  0.005
  0.291  0.006  0.018  0.036  0.649
  0.539  0.007  0.009  0.110  0.335
  0.151  0.066  0.200  0.583  0.000
    occupations:
  0.310  0.068  0.077  0.017 -0.035
  0.068  0.147 -0.063 -0.027  0.040
  0.077 -0.063  0.663  0.380 -0.043
  0.017 -0.027  0.380  0.412  0.092
 -0.035  0.040 -0.043  0.092  0.305
atomic mag. moment =     3.055449
atom   21   Tr[ns(na)] (up, down, total) =   4.89712  1.81801  6.71513
   spin  1
    eigenvalues: 
  0.974  0.979  0.980  0.982  0.982
    eigenvectors:
  0.001  0.249  0.294  0.005  0.452
  0.010  0.044  0.447  0.010  0.489
  0.815  0.014  0.004  0.164  0.003
  0.150  0.285  0.040  0.490  0.035
  0.023  0.408  0.216  0.331  0.022
    occupations:
  0.981  0.001 -0.000 -0.001  0.000
  0.001  0.981 -0.001 -0.000  0.000
 -0.000 -0.001  0.975 -0.003 -0.001
 -0.001 -0.000 -0.003  0.980  0.001
  0.000  0.000 -0.001  0.001  0.980
   spin  2
    eigenvalues: 
  0.094  0.095  0.301  0.370  0.958
    eigenvectors:
  0.218  0.007  0.773  0.000  0.002
  0.634  0.134  0.203  0.017  0.012
  0.006  0.094  0.001  0.067  0.832
  0.140  0.603  0.022  0.094  0.140
  0.001  0.162  0.001  0.821  0.014
    occupations:
  0.256  0.087  0.029 -0.012  0.001
  0.087  0.151  0.075  0.033  0.041
  0.029  0.075  0.831  0.274  0.028
 -0.012  0.033  0.274  0.246  0.115
  0.001  0.041  0.028  0.115  0.333
atomic mag. moment =     3.079116
atom   22   Tr[ns(na)] (up, down, total) =   4.89255  1.83690  6.72945
   spin  1
    eigenvalues: 
  0.973  0.978  0.979  0.980  0.982
    eigenvectors:
  0.001  0.640  0.200  0.113  0.046
  0.018  0.004  0.345  0.461  0.172
  0.632  0.016  0.066  0.100  0.187
  0.347  0.072  0.052  0.322  0.207
  0.002  0.269  0.337  0.004  0.389
    occupations:
  0.979  0.001  0.000 -0.000  0.001
  0.001  0.980 -0.001 -0.000  0.001
  0.000 -0.001  0.976 -0.004 -0.001
 -0.000 -0.000 -0.004  0.978  0.001
  0.001  0.001 -0.001  0.001  0.980
   spin  2
    eigenvalues: 
  0.087  0.103  0.309  0.388  0.950
    eigenvectors:
  0.142  0.052  0.562  0.243  0.000
  0.715  0.052  0.061  0.144  0.029
  0.067  0.265  0.025  0.034  0.609
  0.008  0.537  0.071  0.021  0.362
  0.068  0.093  0.281  0.558  0.000
    occupations:
  0.286  0.095 -0.009 -0.025  0.022
  0.095  0.170  0.104  0.088  0.056
 -0.009  0.104  0.632  0.382 -0.061
 -0.025  0.088  0.382  0.430  0.058
  0.022  0.056 -0.061  0.058  0.319
atomic mag. moment =     3.055655
atom   23   Tr[ns(na)] (up, down, total) =   4.89712  1.81802  6.71513
   spin  1
    eigenvalues: 
  0.974  0.979  0.980  0.982  0.982
    eigenvectors:
  0.001  0.250  0.294  0.002  0.454
  0.010  0.045  0.445  0.017  0.484
  0.817  0.014  0.003  0.164  0.001
  0.149  0.287  0.041  0.477  0.046
  0.023  0.405  0.217  0.340  0.015
    occupations:
  0.981  0.001 -0.000 -0.001  0.000
  0.001  0.981 -0.001 -0.000  0.000
 -0.000 -0.001  0.975 -0.003 -0.001
 -0.001 -0.000 -0.003  0.980  0.001
  0.000  0.000 -0.001  0.001  0.980
   spin  2
    eigenvalues: 
  0.094  0.095  0.301  0.370  0.958
    eigenvectors:
  0.220  0.005  0.773  0.000  0.002
  0.645  0.124  0.204  0.016  0.012
  0.005  0.094  0.001  0.067  0.833
  0.129  0.615  0.022  0.095  0.139
  0.001  0.162  0.001  0.822  0.014
    occupations:
  0.256  0.087  0.030 -0.012  0.001
  0.087  0.151  0.072  0.032  0.040
  0.030  0.072  0.833  0.273  0.029
 -0.012  0.032  0.273  0.246  0.116
  0.001  0.040  0.029  0.116  0.333
atomic mag. moment =     3.079101
atom   24   Tr[ns(na)] (up, down, total) =   4.89387  1.82547  6.71935
   spin  1
    eigenvalues: 
  0.974  0.979  0.979  0.981  0.981
    eigenvectors:
  0.002  0.628  0.192  0.051  0.126
  0.003  0.030  0.122  0.782  0.062
  0.660  0.067  0.010  0.038  0.224
  0.335  0.102  0.021  0.029  0.513
  0.000  0.172  0.654  0.099  0.075
    occupations:
  0.979  0.001  0.000 -0.001  0.000
  0.001  0.981 -0.000 -0.000  0.000
  0.000 -0.000  0.976 -0.003 -0.001
 -0.001 -0.000 -0.003  0.979  0.001
  0.000  0.000 -0.001  0.001  0.979
   spin  2
    eigenvalues: 
  0.093  0.093  0.336  0.347  0.957
    eigenvectors:
  0.006  0.178  0.773  0.040  0.003
  0.115  0.682  0.133  0.068  0.001
  0.225  0.043  0.004  0.063  0.665
  0.455  0.097  0.036  0.082  0.330
  0.198  0.000  0.054  0.747  0.000
    occupations:
  0.293  0.093  0.040  0.002 -0.005
  0.093  0.144  0.016  0.021  0.038
  0.040  0.016  0.685  0.384 -0.043
  0.002  0.021  0.384  0.407  0.084
 -0.005  0.038 -0.043  0.084  0.296
atomic mag. moment =     3.068404
atom   25   Tr[ns(na)] (up, down, total) =   1.82563  4.89372  6.71935
   spin  1
    eigenvalues: 
  0.092  0.092  0.338  0.347  0.958
    eigenvectors:
  0.395  0.421  0.026  0.154  0.004
  0.171  0.031  0.200  0.598  0.000
  0.045  0.042  0.222  0.102  0.589
  0.017  0.072  0.366  0.141  0.404
  0.372  0.434  0.187  0.005  0.002
    occupations:
  0.141  0.094  0.030  0.050 -0.012
  0.094  0.294 -0.024 -0.003 -0.033
  0.030 -0.024  0.683  0.322 -0.089
  0.050 -0.003  0.322  0.567  0.044
 -0.012 -0.033 -0.089  0.044  0.141
   spin  2
    eigenvalues: 
  0.974  0.979  0.979  0.981  0.981
    eigenvectors:
  0.004  0.004  0.361  0.266  0.365
  0.001  0.465  0.147  0.383  0.005
  0.587  0.063  0.235  0.002  0.113
  0.405  0.080  0.253  0.001  0.261
  0.003  0.388  0.004  0.348  0.257
    occupations:
  0.980  0.001  0.000 -0.001 -0.000
  0.001  0.980  0.000  0.000  0.001
  0.000  0.000  0.976 -0.003 -0.000
 -0.001  0.000 -0.003  0.977  0.001
 -0.000  0.001 -0.000  0.001  0.980
atomic mag. moment =    -3.068092
atom   26   Tr[ns(na)] (up, down, total) =   1.82567  4.89371  6.71938
   spin  1
    eigenvalues: 
  0.092  0.092  0.338  0.346  0.958
    eigenvectors:
  0.389  0.427  0.035  0.145  0.004
  0.170  0.032  0.251  0.547  0.000
  0.044  0.042  0.200  0.125  0.590
  0.019  0.071  0.333  0.173  0.404
  0.379  0.427  0.181  0.011  0.002
    occupations:
  0.140  0.094  0.027  0.047 -0.012
  0.094  0.293 -0.022 -0.002 -0.033
  0.027 -0.022  0.684  0.322 -0.087
  0.047 -0.002  0.322  0.568  0.046
 -0.012 -0.033 -0.087  0.046  0.141
   spin  2
    eigenvalues: 
  0.974  0.979  0.979  0.981  0.981
    eigenvectors:
  0.003  0.003  0.364  0.291  0.338
  0.000  0.461  0.156  0.374  0.009
  0.588  0.066  0.227  0.003  0.115
  0.405  0.082  0.250  0.003  0.260
  0.003  0.388  0.003  0.329  0.278
    occupations:
  0.980  0.001  0.000 -0.001 -0.000
  0.001  0.980  0.000  0.000  0.001
  0.000  0.000  0.976 -0.003 -0.000
 -0.001  0.000 -0.003  0.977  0.001
 -0.000  0.001 -0.000  0.001  0.980
atomic mag. moment =    -3.068041
atom   27   Tr[ns(na)] (up, down, total) =   1.82553  4.89358  6.71911
   spin  1
    eigenvalues: 
  0.092  0.093  0.326  0.357  0.957
    eigenvectors:
  0.782  0.005  0.000  0.172  0.041
  0.165  0.029  0.004  0.792  0.010
  0.023  0.100  0.289  0.006  0.582
  0.030  0.081  0.518  0.009  0.361
  0.000  0.785  0.188  0.021  0.006
    occupations:
  0.174  0.080  0.123  0.119 -0.027
  0.080  0.312 -0.078 -0.041 -0.034
  0.123 -0.078  0.665  0.304 -0.101
  0.119 -0.041  0.304  0.528  0.030
 -0.027 -0.034 -0.101  0.030  0.147
   spin  2
    eigenvalues: 
  0.974  0.978  0.979  0.981  0.981
    eigenvectors:
  0.035  0.283  0.023  0.008  0.650
  0.015  0.138  0.306  0.343  0.198
  0.580  0.325  0.070  0.004  0.020
  0.364  0.242  0.174  0.097  0.123
  0.005  0.011  0.427  0.548  0.009
    occupations:
  0.980  0.001 -0.000 -0.002 -0.000
  0.001  0.980  0.000  0.001  0.001
 -0.000  0.000  0.976 -0.002  0.000
 -0.002  0.001 -0.002  0.977  0.001
 -0.000  0.001  0.000  0.001  0.980
atomic mag. moment =    -3.068045
atom   28   Tr[ns(na)] (up, down, total) =   1.82467  4.89289  6.71757
   spin  1
    eigenvalues: 
  0.094  0.095  0.309  0.367  0.959
    eigenvectors:
  0.305  0.397  0.089  0.206  0.002
  0.134  0.063  0.015  0.711  0.078
  0.134  0.452  0.375  0.010  0.028
  0.401  0.084  0.329  0.001  0.185
  0.026  0.004  0.193  0.071  0.706
    occupations:
  0.172  0.108 -0.045  0.024  0.030
  0.108  0.359  0.033 -0.110  0.130
 -0.045  0.033  0.202 -0.139  0.072
  0.024 -0.110 -0.139  0.326 -0.262
  0.030  0.130  0.072 -0.262  0.766
   spin  2
    eigenvalues: 
  0.974  0.978  0.980  0.980  0.982
    eigenvectors:
  0.001  0.004  0.156  0.017  0.822
  0.068  0.110  0.359  0.335  0.128
  0.074  0.061  0.325  0.511  0.029
  0.397  0.460  0.091  0.052  0.001
  0.460  0.366  0.070  0.086  0.019
    occupations:
  0.981  0.001 -0.000  0.000 -0.000
  0.001  0.979 -0.000  0.001 -0.002
 -0.000 -0.000  0.979  0.001 -0.001
  0.000  0.001  0.001  0.977  0.002
 -0.000 -0.002 -0.001  0.002  0.976
atomic mag. moment =    -3.068224
atom   29   Tr[ns(na)] (up, down, total) =   1.82461  4.89290  6.71751
   spin  1
    eigenvalues: 
  0.094  0.095  0.307  0.370  0.959
    eigenvectors:
  0.563  0.143  0.070  0.223  0.001
  0.188  0.007  0.029  0.695  0.080
  0.008  0.589  0.368  0.019  0.016
  0.225  0.235  0.328  0.006  0.207
  0.016  0.026  0.205  0.057  0.696
    occupations:
  0.172  0.107 -0.048  0.030  0.017
  0.107  0.361  0.022 -0.115  0.133
 -0.048  0.022  0.192 -0.126  0.042
  0.030 -0.115 -0.126  0.344 -0.278
  0.017  0.133  0.042 -0.278  0.755
   spin  2
    eigenvalues: 
  0.974  0.978  0.980  0.980  0.982
    eigenvectors:
  0.000  0.004  0.172  0.009  0.815
  0.074  0.078  0.442  0.266  0.140
  0.054  0.079  0.235  0.603  0.028
  0.426  0.438  0.052  0.084  0.000
  0.446  0.400  0.100  0.038  0.017
    occupations:
  0.981  0.001 -0.000  0.000 -0.000
  0.001  0.979 -0.000  0.001 -0.001
 -0.000 -0.000  0.979  0.001 -0.001
  0.000  0.001  0.001  0.976  0.002
 -0.000 -0.001 -0.001  0.002  0.976
atomic mag. moment =    -3.068286
atom   30   Tr[ns(na)] (up, down, total) =   1.82558  4.89356  6.71914
   spin  1
    eigenvalues: 
  0.092  0.093  0.327  0.356  0.958
    eigenvectors:
  0.783  0.006  0.001  0.171  0.040
  0.167  0.027  0.002  0.796  0.009
  0.023  0.093  0.292  0.004  0.589
  0.028  0.087  0.521  0.005  0.359
  0.000  0.787  0.185  0.024  0.004
    occupations:
  0.172  0.081  0.121  0.116 -0.025
  0.081  0.310 -0.074 -0.039 -0.035
  0.121 -0.074  0.671  0.305 -0.094
  0.116 -0.039  0.305  0.526  0.037
 -0.025 -0.035 -0.094  0.037  0.146
   spin  2
    eigenvalues: 
  0.974  0.978  0.979  0.981  0.981
    eigenvectors:
  0.034  0.289  0.025  0.003  0.650
  0.013  0.128  0.327  0.360  0.172
  0.590  0.322  0.062  0.004  0.023
  0.360  0.253  0.166  0.081  0.141
  0.004  0.008  0.421  0.552  0.015
    occupations:
  0.980  0.001 -0.000 -0.002 -0.000
  0.001  0.980  0.000  0.001  0.001
 -0.000  0.000  0.976 -0.002  0.000
 -0.002  0.001 -0.002  0.977  0.001
 -0.000  0.001  0.000  0.001  0.980
atomic mag. moment =    -3.067977
atom   31   Tr[ns(na)] (up, down, total) =   1.82389  4.89461  6.71850
   spin  1
    eigenvalues: 
  0.092  0.093  0.335  0.349  0.956
    eigenvectors:
  0.551  0.271  0.171  0.005  0.001
  0.185  0.010  0.713  0.091  0.001
  0.009  0.040  0.057  0.268  0.626
  0.018  0.110  0.059  0.443  0.370
  0.237  0.568  0.000  0.193  0.001
    occupations:
  0.136  0.091  0.011  0.031 -0.007
  0.091  0.289  0.012  0.014 -0.033
  0.011  0.012  0.716  0.314 -0.033
  0.031  0.014  0.314  0.540  0.094
 -0.007 -0.033 -0.033  0.094  0.143
   spin  2
    eigenvalues: 
  0.974  0.979  0.979  0.981  0.982
    eigenvectors:
  0.002  0.027  0.452  0.323  0.196
  0.002  0.227  0.380  0.389  0.002
  0.625  0.147  0.060  0.000  0.167
  0.370  0.216  0.099  0.017  0.297
  0.000  0.383  0.008  0.271  0.338
    occupations:
  0.980  0.001  0.000 -0.001  0.000
  0.001  0.980 -0.000 -0.000  0.001
  0.000 -0.000  0.976 -0.003 -0.001
 -0.001 -0.000 -0.003  0.978  0.001
  0.000  0.001 -0.001  0.001  0.980
atomic mag. moment =    -3.070719
atom   32   Tr[ns(na)] (up, down, total) =   0.67996  4.23831  4.91828
   spin  1
    eigenvalues: 
  0.072  0.077  0.077  0.210  0.244
    eigenvectors:
  0.055  0.188  0.519  0.005  0.233
  0.122  0.000  0.161  0.071  0.646
  0.073  0.513  0.105  0.261  0.047
  0.320  0.010  0.211  0.407  0.052
  0.429  0.288  0.003  0.257  0.022
    occupations:
  0.116  0.063 -0.023  0.024 -0.007
  0.063  0.194 -0.011  0.009 -0.039
 -0.023 -0.011  0.119 -0.052 -0.028
  0.024  0.009 -0.052  0.138  0.039
 -0.007 -0.039 -0.028  0.039  0.113
   spin  2
    eigenvalues: 
  0.453  0.896  0.961  0.964  0.964
    eigenvectors:
  0.271  0.003  0.128  0.597  0.001
  0.625  0.077  0.117  0.119  0.063
  0.044  0.264  0.201  0.000  0.491
  0.046  0.438  0.291  0.183  0.041
  0.015  0.218  0.263  0.101  0.403
    occupations:
  0.825 -0.209  0.057 -0.059  0.031
 -0.209  0.639  0.075 -0.074  0.057
  0.057  0.075  0.923  0.045  0.004
 -0.059 -0.074  0.045  0.910 -0.007
  0.031  0.057  0.004 -0.007  0.941
atomic mag. moment =    -3.558350
N of occupied +U levels =  105.735452
 --- exit write_ns ---
 Atomic wfc used for LDA+U Projector are NOT orthogonalized
     Starting wfcs from file
     Calculation restarted from scf iteration #   159

     total cpu time spent up to now is       35.4 secs

     Self-consistent Calculation

     iteration #159     ecut=   350.00 Ry     beta= 0.10
     Calculation restarted from kpoint #    13
     Davidson diagonalization with overlap
     c_bands:  3 eigenvalues not converged
     c_bands:  3 eigenvalues not converged
     c_bands:  2 eigenvalues not converged
     ethr =  2.76E-09,  avg # of iterations =  9.0

     total cpu time spent up to now is     3001.1 secs

     total energy              =   -7120.80585347 Ry
     Harris-Foulkes estimate   =   -7120.80679030 Ry
     estimated scf accuracy    <       0.00014588 Ry

     total magnetization       =     0.00 Bohr mag/cell
     absolute magnetization    =    54.27 Bohr mag/cell

     iteration #160     ecut=   350.00 Ry     beta= 0.10
     Davidson diagonalization with overlap
     ethr =  2.76E-09,  avg # of iterations =  4.4

     total cpu time spent up to now is     4246.3 secs

     total energy              =   -7120.80567514 Ry
     Harris-Foulkes estimate   =   -7120.80699258 Ry
     estimated scf accuracy    <       0.00018988 Ry

     total magnetization       =     0.00 Bohr mag/cell
     absolute magnetization    =    54.27 Bohr mag/cell

     iteration #161     ecut=   350.00 Ry     beta= 0.10
     Davidson diagonalization with overlap
     ethr =  2.76E-09,  avg # of iterations =  4.5

     total cpu time spent up to now is     5476.8 secs

     total energy              =   -7120.80592367 Ry
     Harris-Foulkes estimate   =   -7120.80679171 Ry
     estimated scf accuracy    <       0.00014962 Ry

     total magnetization       =     0.00 Bohr mag/cell
     absolute magnetization    =    54.27 Bohr mag/cell

     iteration #162     ecut=   350.00 Ry     beta= 0.10
     Davidson diagonalization with overlap
     ethr =  2.76E-09,  avg # of iterations =  4.0

     total cpu time spent up to now is     6632.2 secs

     total energy              =   -7120.80603656 Ry
     Harris-Foulkes estimate   =   -7120.80663003 Ry
     estimated scf accuracy    <       0.00010661 Ry

     total magnetization       =     0.00 Bohr mag/cell
     absolute magnetization    =    54.26 Bohr mag/cell

     iteration #163     ecut=   350.00 Ry     beta= 0.10
     Davidson diagonalization with overlap
     ethr =  2.76E-09,  avg # of iterations =  3.5

     total cpu time spent up to now is     7728.5 secs

     total energy              =   -7120.80568276 Ry
     Harris-Foulkes estimate   =   -7120.80649690 Ry
     estimated scf accuracy    <       0.00005609 Ry

     total magnetization       =     0.00 Bohr mag/cell
     absolute magnetization    =    54.26 Bohr mag/cell

     iteration #164     ecut=   350.00 Ry     beta= 0.10
     Davidson diagonalization with overlap
     ethr =  2.76E-09,  avg # of iterations =  4.4

     total cpu time spent up to now is     8942.7 secs

     total energy              =   -7120.80670523 Ry
     Harris-Foulkes estimate   =   -7120.80669223 Ry
     estimated scf accuracy    <       0.00012309 Ry

     total magnetization       =    -0.00 Bohr mag/cell
     absolute magnetization    =    54.27 Bohr mag/cell

     iteration #165     ecut=   350.00 Ry     beta= 0.10
     Davidson diagonalization with overlap
     ethr =  2.76E-09,  avg # of iterations =  2.0

     total cpu time spent up to now is     9727.8 secs

     total energy              =   -7120.80603619 Ry
     Harris-Foulkes estimate   =   -7120.80670896 Ry
     estimated scf accuracy    <       0.00011173 Ry

     total magnetization       =    -0.00 Bohr mag/cell
     absolute magnetization    =    54.27 Bohr mag/cell

     iteration #166     ecut=   350.00 Ry     beta= 0.10
     Davidson diagonalization with overlap
     ethr =  2.76E-09,  avg # of iterations =  4.3

     total cpu time spent up to now is    10931.0 secs

     total energy              =   -7120.80658290 Ry
     Harris-Foulkes estimate   =   -7120.80695334 Ry
     estimated scf accuracy    <       0.00007911 Ry

     total magnetization       =     0.00 Bohr mag/cell
     absolute magnetization    =    54.27 Bohr mag/cell

     iteration #167     ecut=   350.00 Ry     beta= 0.10
     Davidson diagonalization with overlap
     ethr =  2.76E-09,  avg # of iterations =  3.6

     total cpu time spent up to now is    11980.1 secs

     total energy              =   -7120.78841193 Ry
     Harris-Foulkes estimate   =   -7120.80684838 Ry
     estimated scf accuracy    <       0.00006445 Ry

     total magnetization       =     0.00 Bohr mag/cell
     absolute magnetization    =    54.27 Bohr mag/cell

     iteration #168     ecut=   350.00 Ry     beta= 0.10
     Davidson diagonalization with overlap
     ethr =  2.76E-09,  avg # of iterations =  5.2

     total cpu time spent up to now is    13677.5 secs

     total energy              =   -7120.80562466 Ry
     Harris-Foulkes estimate   =   -7120.80556711 Ry
     estimated scf accuracy    <       0.00046139 Ry

     total magnetization       =     0.00 Bohr mag/cell
     absolute magnetization    =    54.26 Bohr mag/cell

     iteration #169     ecut=   350.00 Ry     beta= 0.10
     Davidson diagonalization with overlap
     ethr =  2.76E-09,  avg # of iterations =  3.3

     total cpu time spent up to now is    14642.1 secs

     total energy              =   -7120.80578122 Ry
     Harris-Foulkes estimate   =   -7120.80574346 Ry
     estimated scf accuracy    <       0.00029830 Ry

     total magnetization       =    -0.00 Bohr mag/cell
     absolute magnetization    =    54.26 Bohr mag/cell

     iteration #170     ecut=   350.00 Ry     beta= 0.10
     Davidson diagonalization with overlap
     ethr =  2.76E-09,  avg # of iterations =  2.0

     total cpu time spent up to now is    15425.7 secs

     total energy              =   -7120.80360705 Ry
     Harris-Foulkes estimate   =   -7120.80578522 Ry
     estimated scf accuracy    <       0.00025707 Ry

     total magnetization       =    -0.00 Bohr mag/cell
     absolute magnetization    =    54.26 Bohr mag/cell

     iteration #171     ecut=   350.00 Ry     beta= 0.10
     Davidson diagonalization with overlap
     ethr =  2.76E-09,  avg # of iterations =  4.5

     total cpu time spent up to now is    16848.2 secs

     total energy              =   -7120.80607186 Ry
     Harris-Foulkes estimate   =   -7120.80634794 Ry
     estimated scf accuracy    <       0.00005069 Ry

     total magnetization       =    -0.00 Bohr mag/cell
     absolute magnetization    =    54.27 Bohr mag/cell

     iteration #172     ecut=   350.00 Ry     beta= 0.10
     Davidson diagonalization with overlap
     ethr =  2.76E-09,  avg # of iterations =  3.5

     total cpu time spent up to now is    17869.4 secs

     total energy              =   -7120.79926426 Ry
     Harris-Foulkes estimate   =   -7120.80625325 Ry
     estimated scf accuracy    <       0.00003460 Ry

     total magnetization       =    -0.00 Bohr mag/cell
     absolute magnetization    =    54.26 Bohr mag/cell

     iteration #173     ecut=   350.00 Ry     beta= 0.10
     Davidson diagonalization with overlap
     ethr =  2.76E-09,  avg # of iterations =  4.9

     total cpu time spent up to now is    19434.0 secs

     total energy              =   -7120.80278370 Ry
     Harris-Foulkes estimate   =   -7120.80691746 Ry
     estimated scf accuracy    <       0.00004364 Ry

     total magnetization       =    -0.00 Bohr mag/cell
     absolute magnetization    =    54.27 Bohr mag/cell

     iteration #174     ecut=   350.00 Ry     beta= 0.10
     Davidson diagonalization with overlap
     ethr =  2.76E-09,  avg # of iterations =  4.6

     total cpu time spent up to now is    20879.6 secs

     total energy              =   -7120.79401296 Ry
     Harris-Foulkes estimate   =   -7120.80647011 Ry
     estimated scf accuracy    <       0.00002930 Ry

     total magnetization       =     0.00 Bohr mag/cell
     absolute magnetization    =    54.26 Bohr mag/cell

     iteration #175     ecut=   350.00 Ry     beta= 0.10
     Davidson diagonalization with overlap
     ethr =  2.76E-09,  avg # of iterations =  5.1

     total cpu time spent up to now is    22506.1 secs

     total energy              =   -7120.80240848 Ry
     Harris-Foulkes estimate   =   -7120.80536300 Ry
     estimated scf accuracy    <       0.00033645 Ry

     total magnetization       =    -0.00 Bohr mag/cell
     absolute magnetization    =    54.26 Bohr mag/cell

     iteration #176     ecut=   350.00 Ry     beta= 0.10
     Davidson diagonalization with overlap
     ethr =  2.76E-09,  avg # of iterations =  4.8

     total cpu time spent up to now is    23970.6 secs

     total energy              =   -7120.80595814 Ry
     Harris-Foulkes estimate   =   -7120.80600722 Ry
     estimated scf accuracy    <       0.00017880 Ry

     total magnetization       =     0.00 Bohr mag/cell
     absolute magnetization    =    54.27 Bohr mag/cell

     iteration #177     ecut=   350.00 Ry     beta= 0.10
     Davidson diagonalization with overlap
     ethr =  2.76E-09,  avg # of iterations =  2.5

     total cpu time spent up to now is    24809.2 secs

     total energy              =   -7120.80551112 Ry
     Harris-Foulkes estimate   =   -7120.80598592 Ry
     estimated scf accuracy    <       0.00017309 Ry

     total magnetization       =    -0.00 Bohr mag/cell
     absolute magnetization    =    54.26 Bohr mag/cell

     iteration #178     ecut=   350.00 Ry     beta= 0.10
     Davidson diagonalization with overlap
     ethr =  2.76E-09,  avg # of iterations =  4.2

     total cpu time spent up to now is    25987.9 secs

     total energy              =   -7120.80621410 Ry
     Harris-Foulkes estimate   =   -7120.80624811 Ry
     estimated scf accuracy    <       0.00011194 Ry

     total magnetization       =     0.00 Bohr mag/cell
     absolute magnetization    =    54.27 Bohr mag/cell

     iteration #179     ecut=   350.00 Ry     beta= 0.10
     Davidson diagonalization with overlap
     ethr =  2.76E-09,  avg # of iterations =  2.6

     total cpu time spent up to now is    26883.6 secs

     total energy              =   -7120.80002575 Ry
     Harris-Foulkes estimate   =   -7120.80627092 Ry
     estimated scf accuracy    <       0.00016053 Ry

     total magnetization       =     0.00 Bohr mag/cell
     absolute magnetization    =    54.27 Bohr mag/cell

     iteration #180     ecut=   350.00 Ry     beta= 0.10
     Davidson diagonalization with overlap
     ethr =  2.76E-09,  avg # of iterations =  4.6

     total cpu time spent up to now is    28383.8 secs

     total energy              =   -7120.80543550 Ry
     Harris-Foulkes estimate   =   -7120.80533387 Ry
     estimated scf accuracy    <       0.00065040 Ry

     total magnetization       =     0.00 Bohr mag/cell
     absolute magnetization    =    54.26 Bohr mag/cell

     iteration #181     ecut=   350.00 Ry     beta= 0.10
     Davidson diagonalization with overlap
     ethr =  2.76E-09,  avg # of iterations =  2.4

     total cpu time spent up to now is    29216.5 secs

     total energy              =   -7120.79814366 Ry
     Harris-Foulkes estimate   =   -7120.80545475 Ry
     estimated scf accuracy    <       0.00045649 Ry

     total magnetization       =    -0.00 Bohr mag/cell
     absolute magnetization    =    54.26 Bohr mag/cell

     iteration #182     ecut=   350.00 Ry     beta= 0.10
     Davidson diagonalization with overlap
     ethr =  2.76E-09,  avg # of iterations =  4.8

     total cpu time spent up to now is    30825.0 secs

     total energy              =   -7120.80458417 Ry
     Harris-Foulkes estimate   =   -7120.80642667 Ry
     estimated scf accuracy    <       0.00012132 Ry

     total magnetization       =    -0.00 Bohr mag/cell
     absolute magnetization    =    54.27 Bohr mag/cell

     iteration #183     ecut=   350.00 Ry     beta= 0.10
     Davidson diagonalization with overlap
     ethr =  2.76E-09,  avg # of iterations =  4.5

     total cpu time spent up to now is    32206.8 secs

     total energy              =   -7120.80578424 Ry
     Harris-Foulkes estimate   =   -7120.80681545 Ry
     estimated scf accuracy    <       0.00007679 Ry

     total magnetization       =    -0.00 Bohr mag/cell
     absolute magnetization    =    54.27 Bohr mag/cell

     iteration #184     ecut=   350.00 Ry     beta= 0.10
     Davidson diagonalization with overlap
     ethr =  2.76E-09,  avg # of iterations =  4.5

     total cpu time spent up to now is    33471.0 secs

     total energy              =   -7120.80641856 Ry
     Harris-Foulkes estimate   =   -7120.80707231 Ry
     estimated scf accuracy    <       0.00006920 Ry

     total magnetization       =     0.00 Bohr mag/cell
     absolute magnetization    =    54.28 Bohr mag/cell

     iteration #185     ecut=   350.00 Ry     beta= 0.10
     Davidson diagonalization with overlap
     ethr =  2.76E-09,  avg # of iterations =  3.9

     total cpu time spent up to now is    34642.3 secs

     total energy              =   -7120.79551169 Ry
     Harris-Foulkes estimate   =   -7120.80728952 Ry
     estimated scf accuracy    <       0.00002126 Ry

     total magnetization       =    -0.00 Bohr mag/cell
     absolute magnetization    =    54.28 Bohr mag/cell

     iteration #186     ecut=   350.00 Ry     beta= 0.10
     Davidson diagonalization with overlap
     ethr =  2.76E-09,  avg # of iterations =  5.1

     total cpu time spent up to now is    36294.3 secs

     total energy              =   -7120.80612218 Ry
     Harris-Foulkes estimate   =   -7120.80653413 Ry
     estimated scf accuracy    <       0.00003684 Ry

     total magnetization       =    -0.00 Bohr mag/cell
     absolute magnetization    =    54.26 Bohr mag/cell

     iteration #187     ecut=   350.00 Ry     beta= 0.10
     Davidson diagonalization with overlap
     ethr =  2.76E-09,  avg # of iterations =  3.9

     total cpu time spent up to now is    37431.2 secs

     total energy              =   -7120.80059197 Ry
     Harris-Foulkes estimate   =   -7120.80670547 Ry
     estimated scf accuracy    <       0.00003989 Ry

     total magnetization       =    -0.00 Bohr mag/cell
     absolute magnetization    =    54.27 Bohr mag/cell

     iteration #188     ecut=   350.00 Ry     beta= 0.10
     Davidson diagonalization with overlap
     ethr =  2.76E-09,  avg # of iterations =  4.7

     total cpu time spent up to now is    38981.7 secs

     total energy              =   -7120.80393608 Ry
     Harris-Foulkes estimate   =   -7120.80728004 Ry
     estimated scf accuracy    <       0.00002430 Ry

     total magnetization       =     0.00 Bohr mag/cell
     absolute magnetization    =    54.28 Bohr mag/cell

     iteration #189     ecut=   350.00 Ry     beta= 0.10
     Davidson diagonalization with overlap
     ethr =  2.76E-09,  avg # of iterations =  4.5

     total cpu time spent up to now is    40413.3 secs

     total energy              =   -7120.80541663 Ry
     Harris-Foulkes estimate   =   -7120.80692012 Ry
     estimated scf accuracy    <       0.00003005 Ry

     total magnetization       =    -0.00 Bohr mag/cell
     absolute magnetization    =    54.27 Bohr mag/cell

     iteration #190     ecut=   350.00 Ry     beta= 0.10
     Davidson diagonalization with overlap
     ethr =  2.76E-09,  avg # of iterations =  4.5

     total cpu time spent up to now is    41686.8 secs

     total energy              =   -7120.80663920 Ry
     Harris-Foulkes estimate   =   -7120.80665343 Ry
     estimated scf accuracy    <       0.00003725 Ry

     total magnetization       =     0.00 Bohr mag/cell
     absolute magnetization    =    54.27 Bohr mag/cell

     iteration #191     ecut=   350.00 Ry     beta= 0.10
     Davidson diagonalization with overlap
     ethr =  2.76E-09,  avg # of iterations =  2.0

     total cpu time spent up to now is    42492.3 secs

     total energy              =   -7120.80654756 Ry
     Harris-Foulkes estimate   =   -7120.80664900 Ry
     estimated scf accuracy    <       0.00005924 Ry

     total magnetization       =    -0.00 Bohr mag/cell
     absolute magnetization    =    54.26 Bohr mag/cell

     iteration #192     ecut=   350.00 Ry     beta= 0.10
     Davidson diagonalization with overlap
     ethr =  2.76E-09,  avg # of iterations =  2.8

     total cpu time spent up to now is    43366.0 secs

     total energy              =   -7120.79556734 Ry
     Harris-Foulkes estimate   =   -7120.80660532 Ry
     estimated scf accuracy    <       0.00004102 Ry

     total magnetization       =    -0.00 Bohr mag/cell
     absolute magnetization    =    54.26 Bohr mag/cell

     iteration #193     ecut=   350.00 Ry     beta= 0.10
     Davidson diagonalization with overlap
     ethr =  2.76E-09,  avg # of iterations =  5.1

     total cpu time spent up to now is    45006.0 secs

     total energy              =   -7120.80688885 Ry
     Harris-Foulkes estimate   =   -7120.80736434 Ry
     estimated scf accuracy    <       0.00003564 Ry

     total magnetization       =    -0.00 Bohr mag/cell
     absolute magnetization    =    54.28 Bohr mag/cell

     iteration #194     ecut=   350.00 Ry     beta= 0.10
     Davidson diagonalization with overlap
     ethr =  2.76E-09,  avg # of iterations =  3.5

     total cpu time spent up to now is    46058.9 secs

     total energy              =   -7120.80512328 Ry
     Harris-Foulkes estimate   =   -7120.80720418 Ry
     estimated scf accuracy    <       0.00011217 Ry

     total magnetization       =     0.00 Bohr mag/cell
     absolute magnetization    =    54.28 Bohr mag/cell

     iteration #195     ecut=   350.00 Ry     beta= 0.10
     Davidson diagonalization with overlap
     ethr =  2.76E-09,  avg # of iterations =  4.5

     total cpu time spent up to now is    47401.2 secs

     total energy              =   -7120.80582126 Ry
     Harris-Foulkes estimate   =   -7120.80695864 Ry
     estimated scf accuracy    <       0.00004499 Ry

     total magnetization       =     0.00 Bohr mag/cell
     absolute magnetization    =    54.27 Bohr mag/cell

     iteration #196     ecut=   350.00 Ry     beta= 0.10
     Davidson diagonalization with overlap
     ethr =  2.76E-09,  avg # of iterations =  4.2

     total cpu time spent up to now is    48669.7 secs

     total energy              =   -7120.80722219 Ry
     Harris-Foulkes estimate   =   -7120.80721060 Ry
     estimated scf accuracy    <       0.00003719 Ry

     total magnetization       =    -0.00 Bohr mag/cell
     absolute magnetization    =    54.28 Bohr mag/cell

     iteration #197     ecut=   350.00 Ry     beta= 0.10
     Davidson diagonalization with overlap
     ethr =  2.76E-09,  avg # of iterations =  2.0

     total cpu time spent up to now is    49479.8 secs

     total energy              =   -7120.80667976 Ry
     Harris-Foulkes estimate   =   -7120.80723731 Ry
     estimated scf accuracy    <       0.00003369 Ry

     total magnetization       =    -0.00 Bohr mag/cell
     absolute magnetization    =    54.28 Bohr mag/cell

     iteration #198     ecut=   350.00 Ry     beta= 0.10
     Davidson diagonalization with overlap
     ethr =  2.76E-09,  avg # of iterations =  3.8

     total cpu time spent up to now is    50571.2 secs

     total energy              =   -7120.80693618 Ry
     Harris-Foulkes estimate   =   -7120.80711889 Ry
     estimated scf accuracy    <       0.00002196 Ry

     total magnetization       =    -0.00 Bohr mag/cell
     absolute magnetization    =    54.28 Bohr mag/cell

     iteration #199     ecut=   350.00 Ry     beta= 0.10
     Davidson diagonalization with overlap
     ethr =  2.76E-09,  avg # of iterations =  3.4

     total cpu time spent up to now is    51579.1 secs

     total energy              =   -7120.80634960 Ry
     Harris-Foulkes estimate   =   -7120.80705505 Ry
     estimated scf accuracy    <       0.00003397 Ry

     total magnetization       =     0.00 Bohr mag/cell
     absolute magnetization    =    54.28 Bohr mag/cell

     iteration #200     ecut=   350.00 Ry     beta= 0.10
     Davidson diagonalization with overlap
     ethr =  2.76E-09,  avg # of iterations =  3.5
 
     Magnetic moment per site:
     atom:    1    charge:    6.3270    magn:    0.0005    constr:    0.0000
     atom:    2    charge:    6.3267    magn:    0.0004    constr:    0.0000
     atom:    3    charge:    6.3264    magn:   -0.0004    constr:    0.0000
     atom:    4    charge:    6.3278    magn:    0.0000    constr:    0.0000
     atom:    5    charge:    6.3280    magn:    0.0010    constr:    0.0000
     atom:    6    charge:    6.3272    magn:   -0.0009    constr:    0.0000
     atom:    7    charge:    6.3271    magn:   -0.0010    constr:    0.0000
     atom:    8    charge:    6.3275    magn:   -0.0006    constr:    0.0000
     atom:    9    charge:    6.3273    magn:   -0.0009    constr:    0.0000
     atom:   10    charge:    6.3273    magn:   -0.0006    constr:    0.0000
     atom:   11    charge:    6.3279    magn:    0.0000    constr:    0.0000
     atom:   12    charge:    6.3265    magn:   -0.0004    constr:    0.0000
     atom:   13    charge:    6.3270    magn:   -0.0010    constr:    0.0000
     atom:   14    charge:    6.3270    magn:    0.0004    constr:    0.0000
     atom:   15    charge:    6.3280    magn:    0.0010    constr:    0.0000
     atom:   16    charge:    6.3266    magn:    0.0004    constr:    0.0000
     atom:   17    charge:   14.1598    magn:    2.9803    constr:    0.0000
     atom:   18    charge:   14.1510    magn:    2.9943    constr:    0.0000
     atom:   19    charge:   14.1594    magn:    2.9799    constr:    0.0000
     atom:   20    charge:   14.1595    magn:    2.9798    constr:    0.0000
     atom:   21    charge:   14.1493    magn:    3.0073    constr:    0.0000
     atom:   22    charge:   14.1598    magn:    2.9801    constr:    0.0000
     atom:   23    charge:   14.1494    magn:    3.0073    constr:    0.0000
     atom:   24    charge:   14.1511    magn:    2.9945    constr:    0.0000
     atom:   25    charge:   14.1511    magn:   -2.9941    constr:    0.0000
     atom:   26    charge:   14.1512    magn:   -2.9940    constr:    0.0000
     atom:   27    charge:   14.1509    magn:   -2.9939    constr:    0.0000
     atom:   28    charge:   14.1505    magn:   -2.9928    constr:    0.0000
     atom:   29    charge:   14.1505    magn:   -2.9930    constr:    0.0000
     atom:   30    charge:   14.1509    magn:   -2.9938    constr:    0.0000
     atom:   31    charge:   14.1509    magn:   -2.9969    constr:    0.0000
     atom:   32    charge:   12.0049    magn:   -3.2256    constr:    0.0000
     atom:   33    charge:    5.4610    magn:   -0.0202    constr:    0.0000
     atom:   34    charge:    5.4610    magn:   -0.0181    constr:    0.0000
     atom:   35    charge:    5.4618    magn:   -0.0093    constr:    0.0000
     atom:   36    charge:    5.4622    magn:   -0.0073    constr:    0.0000
     atom:   37    charge:    5.4607    magn:   -0.0014    constr:    0.0000
     atom:   38    charge:    5.4613    magn:   -0.0115    constr:    0.0000
     atom:   39    charge:    5.4644    magn:    0.0982    constr:    0.0000
     atom:   40    charge:    5.4618    magn:    0.0020    constr:    0.0000
     atom:   41    charge:    5.4614    magn:   -0.0098    constr:    0.0000
     atom:   42    charge:    5.4618    magn:    0.0021    constr:    0.0000
     atom:   43    charge:    5.4623    magn:   -0.0065    constr:    0.0000
     atom:   44    charge:    5.4618    magn:   -0.0105    constr:    0.0000
     atom:   45    charge:    5.4643    magn:    0.0982    constr:    0.0000
     atom:   46    charge:    5.4610    magn:   -0.0236    constr:    0.0000
     atom:   47    charge:    5.4606    magn:   -0.0017    constr:    0.0000
     atom:   48    charge:    5.4611    magn:   -0.0160    constr:    0.0000
     atom:   49    charge:    5.4612    magn:    0.0190    constr:    0.0000
     atom:   50    charge:    5.4616    magn:    0.0049    constr:    0.0000
     atom:   51    charge:    5.4624    magn:   -0.0078    constr:    0.0000
     atom:   52    charge:    5.4622    magn:   -0.0060    constr:    0.0000
     atom:   53    charge:    5.4614    magn:    0.0335    constr:    0.0000
     atom:   54    charge:    5.4681    magn:    0.0760    constr:    0.0000
     atom:   55    charge:    5.4618    magn:    0.0178    constr:    0.0000
     atom:   56    charge:    5.4618    magn:    0.0090    constr:    0.0000
     atom:   57    charge:    5.4682    magn:    0.0754    constr:    0.0000
     atom:   58    charge:    5.4618    magn:    0.0089    constr:    0.0000
     atom:   59    charge:    5.4622    magn:   -0.0055    constr:    0.0000
     atom:   60    charge:    5.4625    magn:   -0.0081    constr:    0.0000
     atom:   61    charge:    5.4618    magn:    0.0184    constr:    0.0000
     atom:   62    charge:    5.4612    magn:    0.0196    constr:    0.0000
     atom:   63    charge:    5.4615    magn:    0.0333    constr:    0.0000
     atom:   64    charge:    5.4616    magn:    0.0044    constr:    0.0000
     atom:   65    charge:    5.4627    magn:   -0.0089    constr:    0.0000
     atom:   66    charge:    5.4618    magn:   -0.0003    constr:    0.0000
     atom:   67    charge:    5.4608    magn:    0.0001    constr:    0.0000
     atom:   68    charge:    5.4683    magn:    0.0743    constr:    0.0000
     atom:   69    charge:    5.4621    magn:    0.0071    constr:    0.0000
     atom:   70    charge:    5.4627    magn:   -0.0089    constr:    0.0000
     atom:   71    charge:    5.4617    magn:    0.0158    constr:    0.0000
     atom:   72    charge:    5.4617    magn:    0.0027    constr:    0.0000
     atom:   73    charge:    5.4626    magn:   -0.0092    constr:    0.0000
     atom:   74    charge:    5.4616    magn:    0.0006    constr:    0.0000
     atom:   75    charge:    5.4683    magn:    0.0738    constr:    0.0000
     atom:   76    charge:    5.4609    magn:    0.0031    constr:    0.0000
     atom:   77    charge:    5.4618    magn:    0.0156    constr:    0.0000
     atom:   78    charge:    5.4627    magn:   -0.0086    constr:    0.0000
     atom:   79    charge:    5.4621    magn:    0.0078    constr:    0.0000
     atom:   80    charge:    5.4618    magn:   -0.0011    constr:    0.0000

     total cpu time spent up to now is    52688.7 secs

     total energy              =   -7120.80687997 Ry
     Harris-Foulkes estimate   =   -7120.80689054 Ry
     estimated scf accuracy    <       0.00004102 Ry

     total magnetization       =     0.00 Bohr mag/cell
     absolute magnetization    =    54.27 Bohr mag/cell

     iteration #201     ecut=   350.00 Ry     beta= 0.10
     Davidson diagonalization with overlap
     ethr =  2.76E-09,  avg # of iterations =  2.0

     total cpu time spent up to now is    53501.6 secs

     total energy              =   -7120.80690813 Ry
     Harris-Foulkes estimate   =   -7120.80689591 Ry
     estimated scf accuracy    <       0.00004040 Ry

     total magnetization       =    -0.00 Bohr mag/cell
     absolute magnetization    =    54.27 Bohr mag/cell

     iteration #202     ecut=   350.00 Ry     beta= 0.10
     Davidson diagonalization with overlap
     ethr =  2.76E-09,  avg # of iterations =  2.1

     total cpu time spent up to now is    54296.2 secs

     total energy              =   -7120.80600994 Ry
     Harris-Foulkes estimate   =   -7120.80691597 Ry
     estimated scf accuracy    <       0.00003940 Ry

     total magnetization       =     0.00 Bohr mag/cell
     absolute magnetization    =    54.27 Bohr mag/cell

     iteration #203     ecut=   350.00 Ry     beta= 0.10
     Davidson diagonalization with overlap
     ethr =  2.76E-09,  avg # of iterations =  4.5

     total cpu time spent up to now is    55524.4 secs

     total energy              =   -7120.80639724 Ry
     Harris-Foulkes estimate   =   -7120.80713730 Ry
     estimated scf accuracy    <       0.00003796 Ry

     total magnetization       =     0.00 Bohr mag/cell
     absolute magnetization    =    54.27 Bohr mag/cell

     iteration #204     ecut=   350.00 Ry     beta= 0.10
     Davidson diagonalization with overlap
     ethr =  2.76E-09,  avg # of iterations =  4.3

     total cpu time spent up to now is    56731.2 secs

     total energy              =   -7120.79761763 Ry
     Harris-Foulkes estimate   =   -7120.80735421 Ry
     estimated scf accuracy    <       0.00001977 Ry

     total magnetization       =     0.00 Bohr mag/cell
     absolute magnetization    =    54.28 Bohr mag/cell

     iteration #205     ecut=   350.00 Ry     beta= 0.10
     Davidson diagonalization with overlap
     ethr =  2.69E-09,  avg # of iterations =  5.0

     total cpu time spent up to now is    58342.4 secs

     total energy              =   -7120.80602202 Ry
     Harris-Foulkes estimate   =   -7120.80664043 Ry
     estimated scf accuracy    <       0.00011033 Ry

     total magnetization       =     0.00 Bohr mag/cell
     absolute magnetization    =    54.26 Bohr mag/cell

     iteration #206     ecut=   350.00 Ry     beta= 0.10
     Davidson diagonalization with overlap
     ethr =  2.69E-09,  avg # of iterations =  4.4

     total cpu time spent up to now is    59534.2 secs

     total energy              =   -7120.80548035 Ry
     Harris-Foulkes estimate   =   -7120.80686032 Ry
     estimated scf accuracy    <       0.00011275 Ry

     total magnetization       =     0.00 Bohr mag/cell
     absolute magnetization    =    54.27 Bohr mag/cell

     iteration #207     ecut=   350.00 Ry     beta= 0.10
     Davidson diagonalization with overlap
     ethr =  2.69E-09,  avg # of iterations =  4.4

     total cpu time spent up to now is    60797.6 secs

     total energy              =   -7120.80592380 Ry
     Harris-Foulkes estimate   =   -7120.80660564 Ry
     estimated scf accuracy    <       0.00011267 Ry

     total magnetization       =     0.00 Bohr mag/cell
     absolute magnetization    =    54.26 Bohr mag/cell

     iteration #208     ecut=   350.00 Ry     beta= 0.10
     Davidson diagonalization with overlap
     ethr =  2.69E-09,  avg # of iterations =  4.5

     total cpu time spent up to now is    62022.0 secs

     total energy              =   -7120.80455854 Ry
     Harris-Foulkes estimate   =   -7120.80687005 Ry
     estimated scf accuracy    <       0.00004978 Ry

     total magnetization       =     0.00 Bohr mag/cell
     absolute magnetization    =    54.27 Bohr mag/cell

     iteration #209     ecut=   350.00 Ry     beta= 0.10
     Davidson diagonalization with overlap
     ethr =  2.69E-09,  avg # of iterations =  4.5

     total cpu time spent up to now is    63394.7 secs

     total energy              =   -7120.80624818 Ry
     Harris-Foulkes estimate   =   -7120.80648482 Ry
     estimated scf accuracy    <       0.00014773 Ry

     total magnetization       =    -0.00 Bohr mag/cell
     absolute magnetization    =    54.26 Bohr mag/cell

     iteration #210     ecut=   350.00 Ry     beta= 0.10
     Davidson diagonalization with overlap
     ethr =  2.69E-09,  avg # of iterations =  3.4

     total cpu time spent up to now is    64380.8 secs

     total energy              =   -7120.80635250 Ry
     Harris-Foulkes estimate   =   -7120.80639094 Ry
     estimated scf accuracy    <       0.00015188 Ry

     total magnetization       =     0.00 Bohr mag/cell
     absolute magnetization    =    54.26 Bohr mag/cell

     iteration #211     ecut=   350.00 Ry     beta= 0.10
     Davidson diagonalization with overlap
     ethr =  2.69E-09,  avg # of iterations =  2.0

     total cpu time spent up to now is    65195.7 secs

     total energy              =   -7120.80400105 Ry
     Harris-Foulkes estimate   =   -7120.80636914 Ry
     estimated scf accuracy    <       0.00013716 Ry

     total magnetization       =     0.00 Bohr mag/cell
     absolute magnetization    =    54.26 Bohr mag/cell

     iteration #212     ecut=   350.00 Ry     beta= 0.10
     Davidson diagonalization with overlap
     ethr =  2.69E-09,  avg # of iterations =  4.5

     total cpu time spent up to now is    66612.8 secs

     total energy              =   -7120.79962724 Ry
     Harris-Foulkes estimate   =   -7120.80673213 Ry
     estimated scf accuracy    <       0.00019505 Ry

     total magnetization       =     0.00 Bohr mag/cell
     absolute magnetization    =    54.26 Bohr mag/cell

     iteration #213     ecut=   350.00 Ry     beta= 0.10
     Davidson diagonalization with overlap
     ethr =  2.69E-09,  avg # of iterations =  4.6

     total cpu time spent up to now is    68140.8 secs

     total energy              =   -7120.80227724 Ry
     Harris-Foulkes estimate   =   -7120.80618662 Ry
     estimated scf accuracy    <       0.00007139 Ry

     total magnetization       =     0.00 Bohr mag/cell
     absolute magnetization    =    54.26 Bohr mag/cell

     iteration #214     ecut=   350.00 Ry     beta= 0.10
     Davidson diagonalization with overlap
     ethr =  2.69E-09,  avg # of iterations =  4.5

     total cpu time spent up to now is    69568.3 secs

     total energy              =   -7120.80501590 Ry
     Harris-Foulkes estimate   =   -7120.80561967 Ry
     estimated scf accuracy    <       0.00018177 Ry

     total magnetization       =    -0.00 Bohr mag/cell
     absolute magnetization    =    54.26 Bohr mag/cell

     iteration #215     ecut=   350.00 Ry     beta= 0.10
     Davidson diagonalization with overlap
     ethr =  2.69E-09,  avg # of iterations =  4.0

     total cpu time spent up to now is    70742.5 secs

     total energy              =   -7120.80353855 Ry
     Harris-Foulkes estimate   =   -7120.80592815 Ry
     estimated scf accuracy    <       0.00007287 Ry

     total magnetization       =    -0.00 Bohr mag/cell
     absolute magnetization    =    54.26 Bohr mag/cell

     iteration #216     ecut=   350.00 Ry     beta= 0.10
     Davidson diagonalization with overlap
     ethr =  2.69E-09,  avg # of iterations =  4.5

     total cpu time spent up to now is    72107.0 secs

     total energy              =   -7120.80539745 Ry
     Harris-Foulkes estimate   =   -7120.80540876 Ry
     estimated scf accuracy    <       0.00027505 Ry

     total magnetization       =    -0.00 Bohr mag/cell
     absolute magnetization    =    54.26 Bohr mag/cell

     iteration #217     ecut=   350.00 Ry     beta= 0.10
     Davidson diagonalization with overlap
     ethr =  2.69E-09,  avg # of iterations =  3.3

     total cpu time spent up to now is    73112.7 secs

     total energy              =   -7120.80108825 Ry
     Harris-Foulkes estimate   =   -7120.80553782 Ry
     estimated scf accuracy    <       0.00023742 Ry

     total magnetization       =    -0.00 Bohr mag/cell
     absolute magnetization    =    54.26 Bohr mag/cell

     iteration #218     ecut=   350.00 Ry     beta= 0.10
     Davidson diagonalization with overlap
     ethr =  2.69E-09,  avg # of iterations =  4.5

     total cpu time spent up to now is    74571.9 secs

     total energy              =   -7120.80452086 Ry
     Harris-Foulkes estimate   =   -7120.80451696 Ry
     estimated scf accuracy    <       0.00097262 Ry

     total magnetization       =     0.00 Bohr mag/cell
     absolute magnetization    =    54.26 Bohr mag/cell

     iteration #219     ecut=   350.00 Ry     beta= 0.10
     Davidson diagonalization with overlap
     ethr =  2.69E-09,  avg # of iterations =  2.8

     total cpu time spent up to now is    75495.9 secs

     total energy              =   -7120.80440947 Ry
     Harris-Foulkes estimate   =   -7120.80458866 Ry
     estimated scf accuracy    <       0.00094985 Ry

     total magnetization       =     0.00 Bohr mag/cell
     absolute magnetization    =    54.26 Bohr mag/cell

     iteration #220     ecut=   350.00 Ry     beta= 0.10
     Davidson diagonalization with overlap
     ethr =  2.69E-09,  avg # of iterations =  4.2

     total cpu time spent up to now is    76701.2 secs

     total energy              =   -7120.80515147 Ry
     Harris-Foulkes estimate   =   -7120.80520041 Ry
     estimated scf accuracy    <       0.00042836 Ry

     total magnetization       =    -0.00 Bohr mag/cell
     absolute magnetization    =    54.26 Bohr mag/cell

     iteration #221     ecut=   350.00 Ry     beta= 0.10
     Davidson diagonalization with overlap
     ethr =  2.69E-09,  avg # of iterations =  3.5

     total cpu time spent up to now is    77772.8 secs

     total energy              =   -7120.80406055 Ry
     Harris-Foulkes estimate   =   -7120.80548618 Ry
     estimated scf accuracy    <       0.00025111 Ry

     total magnetization       =    -0.00 Bohr mag/cell
     absolute magnetization    =    54.26 Bohr mag/cell

     iteration #222     ecut=   350.00 Ry     beta= 0.10
     Davidson diagonalization with overlap
     ethr =  2.69E-09,  avg # of iterations =  4.5

     total cpu time spent up to now is    79161.9 secs

     total energy              =   -7120.80497156 Ry
     Harris-Foulkes estimate   =   -7120.80598176 Ry
     estimated scf accuracy    <       0.00007147 Ry

     total magnetization       =    -0.00 Bohr mag/cell
     absolute magnetization    =    54.26 Bohr mag/cell

     iteration #223     ecut=   350.00 Ry     beta= 0.10
     Davidson diagonalization with overlap
     ethr =  2.69E-09,  avg # of iterations =  3.9

     total cpu time spent up to now is    80352.9 secs

     total energy              =   -7120.80534316 Ry
     Harris-Foulkes estimate   =   -7120.80573890 Ry
     estimated scf accuracy    <       0.00009743 Ry

     total magnetization       =    -0.00 Bohr mag/cell
     absolute magnetization    =    54.26 Bohr mag/cell

     iteration #224     ecut=   350.00 Ry     beta= 0.10
     Davidson diagonalization with overlap
     ethr =  2.69E-09,  avg # of iterations =  3.5

     total cpu time spent up to now is    81396.9 secs

     total energy              =   -7120.80561712 Ry
     Harris-Foulkes estimate   =   -7120.80558195 Ry
     estimated scf accuracy    <       0.00013723 Ry

     total magnetization       =     0.00 Bohr mag/cell
     absolute magnetization    =    54.26 Bohr mag/cell

     iteration #225     ecut=   350.00 Ry     beta= 0.10
     Davidson diagonalization with overlap
     ethr =  2.69E-09,  avg # of iterations =  2.1

     total cpu time spent up to now is    82222.2 secs

     total energy              =   -7120.80551691 Ry
     Harris-Foulkes estimate   =   -7120.80563675 Ry
     estimated scf accuracy    <       0.00009862 Ry

     total magnetization       =    -0.00 Bohr mag/cell
     absolute magnetization    =    54.26 Bohr mag/cell

     iteration #226     ecut=   350.00 Ry     beta= 0.10
     Davidson diagonalization with overlap
     ethr =  2.69E-09,  avg # of iterations =  3.5

     total cpu time spent up to now is    83277.5 secs

     total energy              =   -7120.80563015 Ry
     Harris-Foulkes estimate   =   -7120.80569758 Ry
     estimated scf accuracy    <       0.00008219 Ry

     total magnetization       =     0.00 Bohr mag/cell
     absolute magnetization    =    54.26 Bohr mag/cell

     iteration #227     ecut=   350.00 Ry     beta= 0.10
     Davidson diagonalization with overlap
     ethr =  2.69E-09,  avg # of iterations =  2.9

     total cpu time spent up to now is    84161.5 secs

     total energy              =   -7120.80554272 Ry
     Harris-Foulkes estimate   =   -7120.80566981 Ry
     estimated scf accuracy    <       0.00009328 Ry

     total magnetization       =     0.00 Bohr mag/cell
     absolute magnetization    =    54.26 Bohr mag/cell

     iteration #228     ecut=   350.00 Ry     beta= 0.10
     Davidson diagonalization with overlap
     ethr =  2.69E-09,  avg # of iterations =  3.5

     total cpu time spent up to now is    85196.4 secs

     total energy              =   -7120.79900651 Ry
     Harris-Foulkes estimate   =   -7120.80568195 Ry
     estimated scf accuracy    <       0.00008812 Ry

     total magnetization       =     0.00 Bohr mag/cell
     absolute magnetization    =    54.26 Bohr mag/cell

     iteration #229     ecut=   350.00 Ry     beta= 0.10
     Davidson diagonalization with overlap
     ethr =  2.69E-09,  avg # of iterations =  4.5

     total cpu time spent up to now is    86764.7 secs

     total energy              =   -7120.80440274 Ry
     Harris-Foulkes estimate   =   -7120.80641687 Ry
     estimated scf accuracy    <       0.00006326 Ry

     total magnetization       =    -0.00 Bohr mag/cell
     absolute magnetization    =    54.27 Bohr mag/cell

     iteration #230     ecut=   350.00 Ry     beta= 0.10
     Davidson diagonalization with overlap
     ethr =  2.69E-09,  avg # of iterations =  4.5

     total cpu time spent up to now is    88166.6 secs

     total energy              =   -7120.80622801 Ry
     Harris-Foulkes estimate   =   -7120.80676463 Ry
     estimated scf accuracy    <       0.00008200 Ry

     total magnetization       =    -0.00 Bohr mag/cell
     absolute magnetization    =    54.27 Bohr mag/cell

     iteration #231     ecut=   350.00 Ry     beta= 0.10
     Davidson diagonalization with overlap
     ethr =  2.69E-09,  avg # of iterations =  3.9

     total cpu time spent up to now is    89315.4 secs

     total energy              =   -7120.80483340 Ry
     Harris-Foulkes estimate   =   -7120.80697719 Ry
     estimated scf accuracy    <       0.00004030 Ry

     total magnetization       =     0.00 Bohr mag/cell
     absolute magnetization    =    54.28 Bohr mag/cell

     iteration #232     ecut=   350.00 Ry     beta= 0.10
     Davidson diagonalization with overlap
     ethr =  2.69E-09,  avg # of iterations =  4.5

     total cpu time spent up to now is    90657.3 secs

     total energy              =   -7120.80617653 Ry
     Harris-Foulkes estimate   =   -7120.80667132 Ry
     estimated scf accuracy    <       0.00002554 Ry

     total magnetization       =     0.00 Bohr mag/cell
     absolute magnetization    =    54.27 Bohr mag/cell

     iteration #233     ecut=   350.00 Ry     beta= 0.10
     Davidson diagonalization with overlap
     ethr =  2.69E-09,  avg # of iterations =  4.0

     total cpu time spent up to now is    91879.8 secs

     total energy              =   -7120.79923054 Ry
     Harris-Foulkes estimate   =   -7120.80685105 Ry
     estimated scf accuracy    <       0.00002455 Ry

     total magnetization       =     0.00 Bohr mag/cell
     absolute magnetization    =    54.27 Bohr mag/cell

     iteration #234     ecut=   350.00 Ry     beta= 0.10
     Davidson diagonalization with overlap
     ethr =  2.69E-09,  avg # of iterations =  4.5

     total cpu time spent up to now is    93442.5 secs

     total energy              =   -7120.80729927 Ry
     Harris-Foulkes estimate   =   -7120.80730567 Ry
     estimated scf accuracy    <       0.00019027 Ry

     total magnetization       =     0.00 Bohr mag/cell
     absolute magnetization    =    54.29 Bohr mag/cell

     iteration #235     ecut=   350.00 Ry     beta= 0.10
     Davidson diagonalization with overlap
     ethr =  2.69E-09,  avg # of iterations =  3.0

     total cpu time spent up to now is    94411.6 secs

     total energy              =   -7120.80732965 Ry
     Harris-Foulkes estimate   =   -7120.80736368 Ry
     estimated scf accuracy    <       0.00007915 Ry

     total magnetization       =    -0.00 Bohr mag/cell
     absolute magnetization    =    54.29 Bohr mag/cell

     iteration #236     ecut=   350.00 Ry     beta= 0.10
     Davidson diagonalization with overlap
     ethr =  2.69E-09,  avg # of iterations =  2.2

     total cpu time spent up to now is    95220.1 secs

     total energy              =   -7120.80731596 Ry
     Harris-Foulkes estimate   =   -7120.80734526 Ry
     estimated scf accuracy    <       0.00007460 Ry

     total magnetization       =    -0.00 Bohr mag/cell
     absolute magnetization    =    54.29 Bohr mag/cell

     iteration #237     ecut=   350.00 Ry     beta= 0.10
     Davidson diagonalization with overlap
     ethr =  2.69E-09,  avg # of iterations =  2.6

     total cpu time spent up to now is    96080.2 secs

     total energy              =   -7120.80395118 Ry
     Harris-Foulkes estimate   =   -7120.80735281 Ry
     estimated scf accuracy    <       0.00008633 Ry

     total magnetization       =    -0.00 Bohr mag/cell
     absolute magnetization    =    54.29 Bohr mag/cell

     iteration #238     ecut=   350.00 Ry     beta= 0.10
     Davidson diagonalization with overlap
     ethr =  2.69E-09,  avg # of iterations =  4.5

     total cpu time spent up to now is    97509.8 secs

     total energy              =   -7120.80584913 Ry
     Harris-Foulkes estimate   =   -7120.80704920 Ry
     estimated scf accuracy    <       0.00002605 Ry

     total magnetization       =    -0.00 Bohr mag/cell
     absolute magnetization    =    54.28 Bohr mag/cell

     iteration #239     ecut=   350.00 Ry     beta= 0.10
     Davidson diagonalization with overlap
     ethr =  2.69E-09,  avg # of iterations =  4.3

     total cpu time spent up to now is    98724.4 secs

     total energy              =   -7120.80540768 Ry
     Harris-Foulkes estimate   =   -7120.80681306 Ry
     estimated scf accuracy    <       0.00005809 Ry

     total magnetization       =    -0.00 Bohr mag/cell
     absolute magnetization    =    54.27 Bohr mag/cell

     iteration #240     ecut=   350.00 Ry     beta= 0.10
     Davidson diagonalization with overlap
     ethr =  2.69E-09,  avg # of iterations =  4.4

     total cpu time spent up to now is   100002.9 secs

     total energy              =   -7120.80655376 Ry
     Harris-Foulkes estimate   =   -7120.80657168 Ry
     estimated scf accuracy    <       0.00005833 Ry

     total magnetization       =     0.00 Bohr mag/cell
     absolute magnetization    =    54.27 Bohr mag/cell

     iteration #241     ecut=   350.00 Ry     beta= 0.10
     Davidson diagonalization with overlap
     ethr =  2.69E-09,  avg # of iterations =  2.0

     total cpu time spent up to now is   100816.1 secs

     total energy              =   -7120.80656404 Ry
     Harris-Foulkes estimate   =   -7120.80657008 Ry
     estimated scf accuracy    <       0.00004260 Ry

     total magnetization       =     0.00 Bohr mag/cell
     absolute magnetization    =    54.27 Bohr mag/cell

     iteration #242     ecut=   350.00 Ry     beta= 0.10
     Davidson diagonalization with overlap
     ethr =  2.69E-09,  avg # of iterations =  1.0

     total cpu time spent up to now is   101586.4 secs

     total energy              =   -7120.80656462 Ry
     Harris-Foulkes estimate   =   -7120.80656449 Ry
     estimated scf accuracy    <       0.00004664 Ry

     total magnetization       =    -0.00 Bohr mag/cell
     absolute magnetization    =    54.27 Bohr mag/cell

     iteration #243     ecut=   350.00 Ry     beta= 0.10
     Davidson diagonalization with overlap
     ethr =  2.69E-09,  avg # of iterations =  1.0

     total cpu time spent up to now is   102355.2 secs

     total energy              =   -7120.79834880 Ry
     Harris-Foulkes estimate   =   -7120.80656471 Ry
     estimated scf accuracy    <       0.00004813 Ry

     total magnetization       =     0.00 Bohr mag/cell
     absolute magnetization    =    54.27 Bohr mag/cell

     iteration #244     ecut=   350.00 Ry     beta= 0.10
     Davidson diagonalization with overlap
     ethr =  2.69E-09,  avg # of iterations =  4.6

     total cpu time spent up to now is   103898.8 secs

     total energy              =   -7120.78114540 Ry
     Harris-Foulkes estimate   =   -7120.80722428 Ry
     estimated scf accuracy    <       0.00003846 Ry

     total magnetization       =     0.00 Bohr mag/cell
     absolute magnetization    =    54.28 Bohr mag/cell

     iteration #245     ecut=   350.00 Ry     beta= 0.10
     Davidson diagonalization with overlap
     ethr =  2.69E-09,  avg # of iterations =  5.5

     total cpu time spent up to now is   105655.2 secs

     total energy              =   -7120.80591595 Ry
     Harris-Foulkes estimate   =   -7120.80604969 Ry
     estimated scf accuracy    <       0.00004331 Ry

     total magnetization       =    -0.00 Bohr mag/cell
     absolute magnetization    =    54.26 Bohr mag/cell

     iteration #246     ecut=   350.00 Ry     beta= 0.10
     Davidson diagonalization with overlap
     ethr =  2.69E-09,  avg # of iterations =  3.7

     total cpu time spent up to now is   106716.6 secs

     total energy              =   -7120.80556313 Ry
     Harris-Foulkes estimate   =   -7120.80617449 Ry
     estimated scf accuracy    <       0.00005028 Ry

     total magnetization       =    -0.00 Bohr mag/cell
     absolute magnetization    =    54.26 Bohr mag/cell

     iteration #247     ecut=   350.00 Ry     beta= 0.10
     Davidson diagonalization with overlap
     ethr =  2.69E-09,  avg # of iterations =  4.4

     total cpu time spent up to now is   107936.8 secs

     total energy              =   -7120.80612167 Ry
     Harris-Foulkes estimate   =   -7120.80639623 Ry
     estimated scf accuracy    <       0.00003924 Ry

     total magnetization       =     0.00 Bohr mag/cell
     absolute magnetization    =    54.27 Bohr mag/cell

[...]

     total cpu time spent up to now is   114854.1 secs

     total energy              =   -7120.78945664 Ry
     Harris-Foulkes estimate   =   -7120.80646807 Ry
     estimated scf accuracy    <       0.00003929 Ry

     total magnetization       =     0.00 Bohr mag/cell
     absolute magnetization    =    54.26 Bohr mag/cell

     iteration #253     ecut=   350.00 Ry     beta= 0.10
     Davidson diagonalization with overlap
     ethr =  2.69E-09,  avg # of iterations =  5.3

     total cpu time spent up to now is   116553.3 secs

     total energy              =   -7120.79403246 Ry
     Harris-Foulkes estimate   =   -7120.80739691 Ry
     estimated scf accuracy    <       0.00002102 Ry

     total magnetization       =     0.00 Bohr mag/cell
     absolute magnetization    =    54.29 Bohr mag/cell

     iteration #254     ecut=   350.00 Ry     beta= 0.10
     Davidson diagonalization with overlap
     ethr =  2.69E-09,  avg # of iterations =  5.3

     total cpu time spent up to now is   118201.2 secs

     total energy              =   -7120.80645532 Ry
     Harris-Foulkes estimate   =   -7120.80663060 Ry
     estimated scf accuracy    <       0.00005472 Ry

     total magnetization       =    -0.00 Bohr mag/cell
     absolute magnetization    =    54.27 Bohr mag/cell

     iteration #255     ecut=   350.00 Ry     beta= 0.10
     Davidson diagonalization with overlap
     ethr =  2.69E-09,  avg # of iterations =  3.7

     total cpu time spent up to now is   119265.0 secs

     total energy              =   -7120.80661345 Ry
     Harris-Foulkes estimate   =   -7120.80677951 Ry
     estimated scf accuracy    <       0.00003849 Ry

     total magnetization       =     0.00 Bohr mag/cell
     absolute magnetization    =    54.27 Bohr mag/cell

     iteration #256     ecut=   350.00 Ry     beta= 0.10
     Davidson diagonalization with overlap
     ethr =  2.69E-09,  avg # of iterations =  3.5

     total cpu time spent up to now is   120312.3 secs

     total energy              =   -7120.80361535 Ry
     Harris-Foulkes estimate   =   -7120.80688724 Ry
     estimated scf accuracy    <       0.00003165 Ry

     total magnetization       =     0.00 Bohr mag/cell
     absolute magnetization    =    54.27 Bohr mag/cell

     iteration #257     ecut=   350.00 Ry     beta= 0.10
     Davidson diagonalization with overlap
     ethr =  2.69E-09,  avg # of iterations =  4.5

     total cpu time spent up to now is   121735.8 secs

     total energy              =   -7120.80638417 Ry
     Harris-Foulkes estimate   =   -7120.80646971 Ry
     estimated scf accuracy    <       0.00004721 Ry

     total magnetization       =    -0.00 Bohr mag/cell
     absolute magnetization    =    54.26 Bohr mag/cell

     iteration #258     ecut=   350.00 Ry     beta= 0.10
     Davidson diagonalization with overlap
     ethr =  2.69E-09,  avg # of iterations =  3.5

     total cpu time spent up to now is   122759.1 secs

     total energy              =   -7120.79765843 Ry
     Harris-Foulkes estimate   =   -7120.80654101 Ry
     estimated scf accuracy    <       0.00004970 Ry

     total magnetization       =     0.00 Bohr mag/cell
     absolute magnetization    =    54.26 Bohr mag/cell

     iteration #259     ecut=   350.00 Ry     beta= 0.10
     Davidson diagonalization with overlap
     ethr =  2.69E-09,  avg # of iterations =  4.8

     total cpu time spent up to now is   124346.4 secs

     total energy              =   -7120.80694427 Ry
     Harris-Foulkes estimate   =   -7120.80720470 Ry
     estimated scf accuracy    <       0.00007812 Ry

     total magnetization       =     0.00 Bohr mag/cell
     absolute magnetization    =    54.28 Bohr mag/cell

     iteration #260     ecut=   350.00 Ry     beta= 0.10
     Davidson diagonalization with overlap
     ethr =  2.69E-09,  avg # of iterations =  3.4

     total cpu time spent up to now is   125364.7 secs

     total energy              =   -7120.79521453 Ry
     Harris-Foulkes estimate   =   -7120.80709712 Ry
     estimated scf accuracy    <       0.00013636 Ry

     total magnetization       =    -0.00 Bohr mag/cell
     absolute magnetization    =    54.27 Bohr mag/cell

     iteration #261     ecut=   350.00 Ry     beta= 0.10
     Davidson diagonalization with overlap
     ethr =  2.69E-09,  avg # of iterations =  5.0

     total cpu time spent up to now is   126974.5 secs

     total energy              =   -7120.80615929 Ry
     Harris-Foulkes estimate   =   -7120.80636104 Ry
     estimated scf accuracy    <       0.00008074 Ry

     total magnetization       =    -0.00 Bohr mag/cell
     absolute magnetization    =    54.26 Bohr mag/cell

     iteration #262     ecut=   350.00 Ry     beta= 0.10
     Davidson diagonalization with overlap
     ethr =  2.69E-09,  avg # of iterations =  3.2

     total cpu time spent up to now is   127928.8 secs

     total energy              =   -7120.80555884 Ry
     Harris-Foulkes estimate   =   -7120.80629142 Ry
     estimated scf accuracy    <       0.00005358 Ry

     total magnetization       =    -0.00 Bohr mag/cell
     absolute magnetization    =    54.26 Bohr mag/cell

     iteration #263     ecut=   350.00 Ry     beta= 0.10
     Davidson diagonalization with overlap
     ethr =  2.69E-09,  avg # of iterations =  4.0

     total cpu time spent up to now is   129107.6 secs

     total energy              =   -7120.80235364 Ry
     Harris-Foulkes estimate   =   -7120.80613660 Ry
     estimated scf accuracy    <       0.00009412 Ry

     total magnetization       =     0.00 Bohr mag/cell
     absolute magnetization    =    54.27 Bohr mag/cell

     iteration #264     ecut=   350.00 Ry     beta= 0.10
     Davidson diagonalization with overlap
     ethr =  2.69E-09,  avg # of iterations =  4.5

     total cpu time spent up to now is   130502.0 secs

     total energy              =   -7120.80533091 Ry
     Harris-Foulkes estimate   =   -7120.80534340 Ry
     estimated scf accuracy    <       0.00060835 Ry

     total magnetization       =    -0.00 Bohr mag/cell
     absolute magnetization    =    54.27 Bohr mag/cell

     iteration #265     ecut=   350.00 Ry     beta= 0.10
     Davidson diagonalization with overlap
     ethr =  2.69E-09,  avg # of iterations =  3.5

     total cpu time spent up to now is   131524.8 secs

     total energy              =   -7120.80290675 Ry
     Harris-Foulkes estimate   =   -7120.80559049 Ry
     estimated scf accuracy    <       0.00043867 Ry

     total magnetization       =     0.00 Bohr mag/cell
     absolute magnetization    =    54.27 Bohr mag/cell

     iteration #266     ecut=   350.00 Ry     beta= 0.10
     Davidson diagonalization with overlap
     ethr =  2.69E-09,  avg # of iterations =  4.5

     total cpu time spent up to now is   132911.1 secs

     total energy              =   -7120.80157480 Ry
     Harris-Foulkes estimate   =   -7120.80489045 Ry
     estimated scf accuracy    <       0.00089554 Ry

     total magnetization       =     0.00 Bohr mag/cell
     absolute magnetization    =    54.26 Bohr mag/cell

     iteration #267     ecut=   350.00 Ry     beta= 0.10
     Davidson diagonalization with overlap
     ethr =  2.69E-09,  avg # of iterations =  4.5

     total cpu time spent up to now is   134397.5 secs

     total energy              =   -7120.80581394 Ry
     Harris-Foulkes estimate   =   -7120.80585433 Ry
     estimated scf accuracy    <       0.00030945 Ry

     total magnetization       =     0.00 Bohr mag/cell
     absolute magnetization    =    54.27 Bohr mag/cell

     iteration #268     ecut=   350.00 Ry     beta= 0.10
     Davidson diagonalization with overlap
     ethr =  2.69E-09,  avg # of iterations =  3.5

     total cpu time spent up to now is   135417.0 secs

     total energy              =   -7120.80577549 Ry
     Harris-Foulkes estimate   =   -7120.80598478 Ry
     estimated scf accuracy    <       0.00024214 Ry

     total magnetization       =    -0.00 Bohr mag/cell
     absolute magnetization    =    54.27 Bohr mag/cell

     iteration #269     ecut=   350.00 Ry     beta= 0.10
     Davidson diagonalization with overlap
     ethr =  2.69E-09,  avg # of iterations =  3.6

     total cpu time spent up to now is   136508.7 secs

     total energy              =   -7120.80363837 Ry
     Harris-Foulkes estimate   =   -7120.80620485 Ry
     estimated scf accuracy    <       0.00016720 Ry

     total magnetization       =     0.00 Bohr mag/cell
     absolute magnetization    =    54.27 Bohr mag/cell

     iteration #270     ecut=   350.00 Ry     beta= 0.10
     Davidson diagonalization with overlap
     ethr =  2.69E-09,  avg # of iterations =  4.5

     total cpu time spent up to now is   137866.2 secs

     total energy              =   -7120.80477948 Ry
     Harris-Foulkes estimate   =   -7120.80578516 Ry
     estimated scf accuracy    <       0.00023928 Ry

     total magnetization       =     0.00 Bohr mag/cell
     absolute magnetization    =    54.26 Bohr mag/cell

     iteration #271     ecut=   350.00 Ry     beta= 0.10
     Davidson diagonalization with overlap
     ethr =  2.69E-09,  avg # of iterations =  4.5

     total cpu time spent up to now is   139138.2 secs

     total energy              =   -7120.80574616 Ry
     Harris-Foulkes estimate   =   -7120.80616586 Ry
     estimated scf accuracy    <       0.00013862 Ry

     total magnetization       =     0.00 Bohr mag/cell
     absolute magnetization    =    54.27 Bohr mag/cell

     iteration #272     ecut=   350.00 Ry     beta= 0.10
     Davidson diagonalization with overlap
     ethr =  2.69E-09,  avg # of iterations =  3.9

     total cpu time spent up to now is   140252.7 secs

     total energy              =   -7120.80602209 Ry
     Harris-Foulkes estimate   =   -7120.80637988 Ry
     estimated scf accuracy    <       0.00011519 Ry

     total magnetization       =    -0.00 Bohr mag/cell
     absolute magnetization    =    54.27 Bohr mag/cell

     iteration #273     ecut=   350.00 Ry     beta= 0.10
     Davidson diagonalization with overlap
     ethr =  2.69E-09,  avg # of iterations =  3.5

     total cpu time spent up to now is   141290.1 secs

     total energy              =   -7120.80584496 Ry
     Harris-Foulkes estimate   =   -7120.80625493 Ry
     estimated scf accuracy    <       0.00014622 Ry

     total magnetization       =    -0.00 Bohr mag/cell
     absolute magnetization    =    54.27 Bohr mag/cell

     iteration #274     ecut=   350.00 Ry     beta= 0.10
     Davidson diagonalization with overlap
     ethr =  2.69E-09,  avg # of iterations =  4.1

     total cpu time spent up to now is   142449.9 secs

     total energy              =   -7120.80642919 Ry
     Harris-Foulkes estimate   =   -7120.80646333 Ry
     estimated scf accuracy    <       0.00010988 Ry

     total magnetization       =     0.00 Bohr mag/cell
     absolute magnetization    =    54.27 Bohr mag/cell

     iteration #275     ecut=   350.00 Ry     beta= 0.10
     Davidson diagonalization with overlap
     ethr =  2.69E-09,  avg # of iterations =  2.0

     total cpu time spent up to now is   143247.9 secs

     total energy              =   -7120.80034555 Ry
     Harris-Foulkes estimate   =   -7120.80644084 Ry
     estimated scf accuracy    <       0.00011460 Ry

     total magnetization       =    -0.00 Bohr mag/cell
     absolute magnetization    =    54.27 Bohr mag/cell

     iteration #276     ecut=   350.00 Ry     beta= 0.10
     Davidson diagonalization with overlap
     ethr =  2.69E-09,  avg # of iterations =  4.9

     total cpu time spent up to now is   144786.3 secs

     total energy              =   -7120.80562993 Ry
     Harris-Foulkes estimate   =   -7120.80703999 Ry
     estimated scf accuracy    <       0.00012545 Ry

     total magnetization       =     0.00 Bohr mag/cell
     absolute magnetization    =    54.28 Bohr mag/cell

     iteration #277     ecut=   350.00 Ry     beta= 0.10
     Davidson diagonalization with overlap
     ethr =  2.69E-09,  avg # of iterations =  4.5

     total cpu time spent up to now is   146144.9 secs

     total energy              =   -7120.80579901 Ry
     Harris-Foulkes estimate   =   -7120.80733879 Ry
     estimated scf accuracy    <       0.00006493 Ry

     total magnetization       =     0.00 Bohr mag/cell
     absolute magnetization    =    54.29 Bohr mag/cell

     iteration #278     ecut=   350.00 Ry     beta= 0.10
     Davidson diagonalization with overlap
     ethr =  2.69E-09,  avg # of iterations =  4.5

     total cpu time spent up to now is   147460.8 secs

     total energy              =   -7120.80467212 Ry
     Harris-Foulkes estimate   =   -7120.80736383 Ry
     estimated scf accuracy    <       0.00033580 Ry

     total magnetization       =     0.00 Bohr mag/cell
     absolute magnetization    =    54.30 Bohr mag/cell

     iteration #279     ecut=   350.00 Ry     beta= 0.10
     Davidson diagonalization with overlap
     ethr =  2.69E-09,  avg # of iterations =  4.5

     total cpu time spent up to now is   148865.6 secs

     total energy              =   -7120.80081733 Ry
     Harris-Foulkes estimate   =   -7120.80726319 Ry
     estimated scf accuracy    <       0.00003317 Ry

     total magnetization       =     0.00 Bohr mag/cell
     absolute magnetization    =    54.28 Bohr mag/cell

     iteration #280     ecut=   350.00 Ry     beta= 0.10
     Davidson diagonalization with overlap
     ethr =  2.69E-09,  avg # of iterations =  4.7

     total cpu time spent up to now is   150424.7 secs

     total energy              =   -7120.80577166 Ry
     Harris-Foulkes estimate   =   -7120.80752947 Ry
     estimated scf accuracy    <       0.00024436 Ry

     total magnetization       =    -0.00 Bohr mag/cell
     absolute magnetization    =    54.30 Bohr mag/cell

     iteration #281     ecut=   350.00 Ry     beta= 0.10
     Davidson diagonalization with overlap
     ethr =  2.69E-09,  avg # of iterations =  4.5

     total cpu time spent up to now is   151794.7 secs

     total energy              =   -7120.80701802 Ry
     Harris-Foulkes estimate   =   -7120.80750669 Ry
     estimated scf accuracy    <       0.00003589 Ry

     total magnetization       =     0.00 Bohr mag/cell
     absolute magnetization    =    54.29 Bohr mag/cell

     iteration #282     ecut=   350.00 Ry     beta= 0.10
     Davidson diagonalization with overlap
     ethr =  2.69E-09,  avg # of iterations =  3.9

     total cpu time spent up to now is   152922.4 secs

     total energy              =   -7120.80642845 Ry
     Harris-Foulkes estimate   =   -7120.80747696 Ry
     estimated scf accuracy    <       0.00004530 Ry

     total magnetization       =    -0.00 Bohr mag/cell
     absolute magnetization    =    54.29 Bohr mag/cell

     iteration #283     ecut=   350.00 Ry     beta= 0.10
     Davidson diagonalization with overlap
     ethr =  2.69E-09,  avg # of iterations =  4.5

     total cpu time spent up to now is   154207.7 secs

     total energy              =   -7120.80451058 Ry
     Harris-Foulkes estimate   =   -7120.80757310 Ry
     estimated scf accuracy    <       0.00011771 Ry

     total magnetization       =     0.00 Bohr mag/cell
     absolute magnetization    =    54.30 Bohr mag/cell

     iteration #284     ecut=   350.00 Ry     beta= 0.10
     Davidson diagonalization with overlap
     ethr =  2.69E-09,  avg # of iterations =  4.5

     total cpu time spent up to now is   155608.6 secs

     total energy              =   -7120.80634972 Ry
     Harris-Foulkes estimate   =   -7120.80732800 Ry
     estimated scf accuracy    <       0.00002203 Ry

     total magnetization       =    -0.00 Bohr mag/cell
     absolute magnetization    =    54.28 Bohr mag/cell

     iteration #285     ecut=   350.00 Ry     beta= 0.10
     Davidson diagonalization with overlap
     ethr =  2.69E-09,  avg # of iterations =  4.5

     total cpu time spent up to now is   156831.1 secs

     total energy              =   -7120.80719617 Ry
     Harris-Foulkes estimate   =   -7120.80747977 Ry
     estimated scf accuracy    <       0.00010623 Ry

     total magnetization       =     0.00 Bohr mag/cell
     absolute magnetization    =    54.29 Bohr mag/cell

     iteration #286     ecut=   350.00 Ry     beta= 0.10
     Davidson diagonalization with overlap
     ethr =  2.69E-09,  avg # of iterations =  4.0

     total cpu time spent up to now is   157917.0 secs

     total energy              =   -7120.80571162 Ry
     Harris-Foulkes estimate   =   -7120.80749462 Ry
     estimated scf accuracy    <       0.00002648 Ry

     total magnetization       =     0.00 Bohr mag/cell
     absolute magnetization    =    54.29 Bohr mag/cell

     iteration #287     ecut=   350.00 Ry     beta= 0.10
     Davidson diagonalization with overlap
     ethr =  2.69E-09,  avg # of iterations =  4.5

     total cpu time spent up to now is   159199.2 secs

     total energy              =   -7120.80579200 Ry
     Harris-Foulkes estimate   =   -7120.80726765 Ry
     estimated scf accuracy    <       0.00002579 Ry

     total magnetization       =     0.00 Bohr mag/cell
     absolute magnetization    =    54.28 Bohr mag/cell

     iteration #288     ecut=   350.00 Ry     beta= 0.10
     Davidson diagonalization with overlap

     Maximum CPU time exceeded

     max_seconds     =  160000.00
     elapsed seconds =  160065.74
     Calculation stopped in k-point loop, point #    12
     Calculation stopped in scf loop at iteration #   287

     Writing output data file pwscf.save/
 
     init_run     :     24.58s CPU     29.28s WALL (       1 calls)
     electrons    : 154592.99s CPU 160109.27s WALL (       1 calls)

     Called by init_run:
     wfcinit      :     17.17s CPU     17.93s WALL (       1 calls)
     potinit      :      0.38s CPU      4.08s WALL (       1 calls)
     hinit0       :      3.73s CPU      3.80s WALL (       1 calls)

     Called by electrons:
     c_bands      : 138517.14s CPU 146885.49s WALL (     130 calls)
     sum_band     :  16019.50s CPU  16216.53s WALL (     129 calls)
     v_of_rho     :     15.21s CPU     15.78s WALL (     130 calls)
     mix_rho      :     43.91s CPU     85.19s WALL (     129 calls)

     Called by c_bands:
     init_us_2    :    198.00s CPU    205.60s WALL (    4144 calls)
     cegterg      : 137807.09s CPU 140583.86s WALL (    2064 calls)

     Called by sum_band:

     Called by *egterg:
     h_psi        :  87992.31s CPU  89354.85s WALL (   10256 calls)
     g_psi        :    203.49s CPU    206.49s WALL (    8192 calls)
     cdiaghg      :   7005.93s CPU   7220.44s WALL (   10256 calls)

     Called by h_psi:
     h_psi:pot    :  81088.49s CPU  82075.73s WALL (   10256 calls)
     h_psi:calbec :   4507.90s CPU   4559.00s WALL (   10256 calls)
     vloc_psi     :  72135.42s CPU  73018.58s WALL (   10256 calls)
     add_vuspsi   :   4444.91s CPU   4497.99s WALL (   10256 calls)
     vhpsi        :   6584.01s CPU   6654.28s WALL (   10256 calls)

     General routines
     calbec       :   6115.62s CPU   6187.20s WALL (   22592 calls)
     fft          :     21.51s CPU     21.89s WALL (     649 calls)
     ffts         :      6.78s CPU      6.86s WALL (     258 calls)
     fftw         :  72269.03s CPU  73132.34s WALL ( 6171106 calls)
     davcio       :      2.61s CPU   5322.08s WALL (      82 calls)
 
     Parallel routines
     fft_scatt_xy :  17878.74s CPU  18087.12s WALL ( 6172013 calls)
     fft_scatt_yz :  17129.33s CPU  17335.01s WALL ( 6172013 calls)

     Hubbard U routines
     new_ns       :    575.51s CPU    584.17s WALL (     129 calls)
     vhpsi        :   6584.01s CPU   6654.28s WALL (   10256 calls)
 
     PWSCF        :   1d18h57m CPU   1d21h20m WALL

 
   This run was terminated on:  15:41:22  15Oct2021            

=------------------------------------------------------------------------------=
   JOB DONE.
=------------------------------------------------------------------------------=
