
     Program PWSCF v.6.7MaX starts on 27Nov2021 at 15:23:52 

     This program is part of the open-source Quantum ESPRESSO suite
     for quantum simulation of materials; please cite
         "P. Giannozzi et al., J. Phys.:Condens. Matter 21 395502 (2009);
         "P. Giannozzi et al., J. Phys.:Condens. Matter 29 465901 (2017);
          URL http://www.quantum-espresso.org", 
     in publications or presentations arising from this work. More details at
     http://www.quantum-espresso.org/quote

     Parallel version (MPI), running on    48 processors

     MPI processes distributed on     1 nodes
     R & G space division:  proc/nbgrp/npool/nimage =      48
     Reading input from scf.in

     Current dimensions of program PWSCF are:
     Max number of different atomic species (ntypx) = 10
     Max number of k-points (npk) =  40000
     Max angular momentum in pseudopotentials (lmaxx) =  3
     Message from routine scan_end:
     No INFO block end statement, possibly corrupted file
     Message from routine scan_end:
     No INFO block end statement, possibly corrupted file
     Message from routine scan_end:
     No INFO block end statement, possibly corrupted file

     IMPORTANT: XC functional enforced from input :
     Exchange-correlation= PBE0
                           (   6   4   8   4   0   0   0)
     EXX-fraction              =        0.25
     Any further DFT definition will be discarded
     Please, verify this is what you really want


     Subspace diagonalization in iterative solution of the eigenvalue problem:
     one sub-group per band group will be used
     scalapack distributed-memory algorithm (size of sub-group:  6*  6 procs)

     EXX: q-point mesh:     2    2    2
     EXX: setup a grid of 8 q-points centered on each k-point
     (k+q)-points:
   0.0000000   0.0000000   0.0000000         1    1
   0.0000000   0.0000000  -0.5000000         2    1
   0.0000000  -0.5000000   0.0000000         2   13
   0.0000000  -0.5000000  -0.5000000         3    1
  -0.5000000   0.0000000   0.0000000         2    9
  -0.5000000   0.0000000   0.5000000         3    5
  -0.5000000   0.5000000   0.0000000         3    9
  -0.5000000  -0.5000000  -0.5000000         4    1
 
     Parallelization info
     --------------------
     sticks:   dense  smooth     PW     G-vecs:    dense   smooth      PW
     Min         336     336     87                32092    32092    4297
     Max         337     337     88                32097    32097    4304
     Sum       16141   16141   4221              1540499  1540499  206437
 


     bravais-lattice index     =            1
     lattice parameter (alat)  =       7.9576  a.u.
     unit-cell volume          =     503.9013 (a.u.)^3
     number of atoms/cell      =            8
     number of atomic types    =            3
     number of electrons       =        46.00 (up:  23.00, down:  23.00)
     number of Kohn-Sham states=           32
     kinetic-energy cutoff     =     800.0000  Ry
     charge density cutoff     =    3200.0000  Ry
     cutoff for Fock operator  =    3200.0000  Ry
     scf convergence threshold =      1.0E-10
     mixing beta               =       0.2000
     number of iterations used =            8  plain     mixing
     Exchange-correlation= PBE0
                           (   6   4   8   4   0   0   0)
     EXX-fraction              =        0.25

     celldm(1)=   7.957595  celldm(2)=   0.000000  celldm(3)=   0.000000
     celldm(4)=   0.000000  celldm(5)=   0.000000  celldm(6)=   0.000000

     crystal axes: (cart. coord. in units of alat)
               a(1) = (   1.000000   0.000000   0.000000 )  
               a(2) = (   0.000000   1.000000   0.000000 )  
               a(3) = (   0.000000   0.000000   1.000000 )  

     reciprocal axes: (cart. coord. in units 2 pi/alat)
               b(1) = (  1.000000  0.000000  0.000000 )  
               b(2) = (  0.000000  1.000000  0.000000 )  
               b(3) = (  0.000000  0.000000  1.000000 )  


     PseudoPot. # 1 for Fe read from file:
     /ascldap/users/jptowns/ferropericlase_spintransition/pseudos/Fe.ccECP.upf
     MD5 check sum: 375ee7e2ce333dc2f1485c86089d969e
     Pseudo is Norm-conserving, Zval = 16.0
     Generated by new atomic code, or converted to UPF format
     Using radial grid of 1160 points,  2 beta functions with: 
                l(1) =   1
                l(2) =   2

     PseudoPot. # 2 for Mg read from file:
     /ascldap/users/jptowns/ferropericlase_spintransition/pseudos/Mg.ccECP.upf
     MD5 check sum: 94218cb30fa6b3f6810c07405bb1118c
     Pseudo is Norm-conserving, Zval =  2.0
     Generated by new atomic code, or converted to UPF format
     Using radial grid of 1140 points,  2 beta functions with: 
                l(1) =   0
                l(2) =   2

     PseudoPot. # 3 for O  read from file:
     /ascldap/users/jptowns/ferropericlase_spintransition/pseudos/O.ccECP.upf
     MD5 check sum: f8511452b848d8673c004e477b4fc277
     Pseudo is Norm-conserving, Zval =  6.0
     Generated by new atomic code, or converted to UPF format
     Using radial grid of 1130 points,  1 beta functions with: 
                l(1) =   0

     atomic species   valence    mass     pseudopotential
        Fe            16.00    55.84500     Fe( 1.00)
        Mg             2.00    24.30500     Mg( 1.00)
        O              6.00    15.99900     O ( 1.00)

     Starting magnetic structure 
     atomic species   magnetization
        Fe           0.000
        Mg           0.000
        O            0.000

     48 Sym. Ops., with inversion, found


                                    s                        frac. trans.

      isym =  1     identity                                     

 cryst.   s( 1) = (     1          0          0      )
                  (     0          1          0      )
                  (     0          0          1      )

 cart.    s( 1) = (  1.0000000  0.0000000  0.0000000 )
                  (  0.0000000  1.0000000  0.0000000 )
                  (  0.0000000  0.0000000  1.0000000 )


      isym =  2     180 deg rotation - cart. axis [0,0,1]        

 cryst.   s( 2) = (    -1          0          0      )
                  (     0         -1          0      )
                  (     0          0          1      )

 cart.    s( 2) = ( -1.0000000  0.0000000  0.0000000 )
                  (  0.0000000 -1.0000000  0.0000000 )
                  (  0.0000000  0.0000000  1.0000000 )


      isym =  3     180 deg rotation - cart. axis [0,1,0]        

 cryst.   s( 3) = (    -1          0          0      )
                  (     0          1          0      )
                  (     0          0         -1      )

 cart.    s( 3) = ( -1.0000000  0.0000000  0.0000000 )
                  (  0.0000000  1.0000000  0.0000000 )
                  (  0.0000000  0.0000000 -1.0000000 )


      isym =  4     180 deg rotation - cart. axis [1,0,0]        

 cryst.   s( 4) = (     1          0          0      )
                  (     0         -1          0      )
                  (     0          0         -1      )

 cart.    s( 4) = (  1.0000000  0.0000000  0.0000000 )
                  (  0.0000000 -1.0000000  0.0000000 )
                  (  0.0000000  0.0000000 -1.0000000 )


      isym =  5     180 deg rotation - cart. axis [1,1,0]        

 cryst.   s( 5) = (     0          1          0      )
                  (     1          0          0      )
                  (     0          0         -1      )

 cart.    s( 5) = (  0.0000000  1.0000000  0.0000000 )
                  (  1.0000000  0.0000000  0.0000000 )
                  (  0.0000000  0.0000000 -1.0000000 )


      isym =  6     180 deg rotation - cart. axis [1,-1,0]       

 cryst.   s( 6) = (     0         -1          0      )
                  (    -1          0          0      )
                  (     0          0         -1      )

 cart.    s( 6) = (  0.0000000 -1.0000000  0.0000000 )
                  ( -1.0000000  0.0000000  0.0000000 )
                  (  0.0000000  0.0000000 -1.0000000 )


      isym =  7      90 deg rotation - cart. axis [0,0,-1]       

 cryst.   s( 7) = (     0         -1          0      )
                  (     1          0          0      )
                  (     0          0          1      )

 cart.    s( 7) = (  0.0000000  1.0000000  0.0000000 )
                  ( -1.0000000  0.0000000  0.0000000 )
                  (  0.0000000  0.0000000  1.0000000 )


      isym =  8      90 deg rotation - cart. axis [0,0,1]        

 cryst.   s( 8) = (     0          1          0      )
                  (    -1          0          0      )
                  (     0          0          1      )

 cart.    s( 8) = (  0.0000000 -1.0000000  0.0000000 )
                  (  1.0000000  0.0000000  0.0000000 )
                  (  0.0000000  0.0000000  1.0000000 )


      isym =  9     180 deg rotation - cart. axis [1,0,1]        

 cryst.   s( 9) = (     0          0          1      )
                  (     0         -1          0      )
                  (     1          0          0      )

 cart.    s( 9) = (  0.0000000  0.0000000  1.0000000 )
                  (  0.0000000 -1.0000000  0.0000000 )
                  (  1.0000000  0.0000000  0.0000000 )


      isym = 10     180 deg rotation - cart. axis [-1,0,1]       

 cryst.   s(10) = (     0          0         -1      )
                  (     0         -1          0      )
                  (    -1          0          0      )

 cart.    s(10) = (  0.0000000  0.0000000 -1.0000000 )
                  (  0.0000000 -1.0000000  0.0000000 )
                  ( -1.0000000  0.0000000  0.0000000 )


      isym = 11      90 deg rotation - cart. axis [0,1,0]        

 cryst.   s(11) = (     0          0         -1      )
                  (     0          1          0      )
                  (     1          0          0      )

 cart.    s(11) = (  0.0000000  0.0000000  1.0000000 )
                  (  0.0000000  1.0000000  0.0000000 )
                  ( -1.0000000  0.0000000  0.0000000 )


      isym = 12      90 deg rotation - cart. axis [0,-1,0]       

 cryst.   s(12) = (     0          0          1      )
                  (     0          1          0      )
                  (    -1          0          0      )

 cart.    s(12) = (  0.0000000  0.0000000 -1.0000000 )
                  (  0.0000000  1.0000000  0.0000000 )
                  (  1.0000000  0.0000000  0.0000000 )


      isym = 13     180 deg rotation - cart. axis [0,1,1]        

 cryst.   s(13) = (    -1          0          0      )
                  (     0          0          1      )
                  (     0          1          0      )

 cart.    s(13) = ( -1.0000000  0.0000000  0.0000000 )
                  (  0.0000000  0.0000000  1.0000000 )
                  (  0.0000000  1.0000000  0.0000000 )


      isym = 14     180 deg rotation - cart. axis [0,1,-1]       

 cryst.   s(14) = (    -1          0          0      )
                  (     0          0         -1      )
                  (     0         -1          0      )

 cart.    s(14) = ( -1.0000000  0.0000000  0.0000000 )
                  (  0.0000000  0.0000000 -1.0000000 )
                  (  0.0000000 -1.0000000  0.0000000 )


      isym = 15      90 deg rotation - cart. axis [-1,0,0]       

 cryst.   s(15) = (     1          0          0      )
                  (     0          0         -1      )
                  (     0          1          0      )

 cart.    s(15) = (  1.0000000  0.0000000  0.0000000 )
                  (  0.0000000  0.0000000  1.0000000 )
                  (  0.0000000 -1.0000000  0.0000000 )


      isym = 16      90 deg rotation - cart. axis [1,0,0]        

 cryst.   s(16) = (     1          0          0      )
                  (     0          0          1      )
                  (     0         -1          0      )

 cart.    s(16) = (  1.0000000  0.0000000  0.0000000 )
                  (  0.0000000  0.0000000 -1.0000000 )
                  (  0.0000000  1.0000000  0.0000000 )


      isym = 17     120 deg rotation - cart. axis [-1,-1,-1]     

 cryst.   s(17) = (     0          0          1      )
                  (     1          0          0      )
                  (     0          1          0      )

 cart.    s(17) = (  0.0000000  1.0000000  0.0000000 )
                  (  0.0000000  0.0000000  1.0000000 )
                  (  1.0000000  0.0000000  0.0000000 )


      isym = 18     120 deg rotation - cart. axis [-1,1,1]       

 cryst.   s(18) = (     0          0         -1      )
                  (    -1          0          0      )
                  (     0          1          0      )

 cart.    s(18) = (  0.0000000 -1.0000000  0.0000000 )
                  (  0.0000000  0.0000000  1.0000000 )
                  ( -1.0000000  0.0000000  0.0000000 )


      isym = 19     120 deg rotation - cart. axis [1,1,-1]       

 cryst.   s(19) = (     0          0         -1      )
                  (     1          0          0      )
                  (     0         -1          0      )

 cart.    s(19) = (  0.0000000  1.0000000  0.0000000 )
                  (  0.0000000  0.0000000 -1.0000000 )
                  ( -1.0000000  0.0000000  0.0000000 )


      isym = 20     120 deg rotation - cart. axis [1,-1,1]       

 cryst.   s(20) = (     0          0          1      )
                  (    -1          0          0      )
                  (     0         -1          0      )

 cart.    s(20) = (  0.0000000 -1.0000000  0.0000000 )
                  (  0.0000000  0.0000000 -1.0000000 )
                  (  1.0000000  0.0000000  0.0000000 )


      isym = 21     120 deg rotation - cart. axis [1,1,1]        

 cryst.   s(21) = (     0          1          0      )
                  (     0          0          1      )
                  (     1          0          0      )

 cart.    s(21) = (  0.0000000  0.0000000  1.0000000 )
                  (  1.0000000  0.0000000  0.0000000 )
                  (  0.0000000  1.0000000  0.0000000 )


      isym = 22     120 deg rotation - cart. axis [-1,1,-1]      

 cryst.   s(22) = (     0         -1          0      )
                  (     0          0         -1      )
                  (     1          0          0      )

 cart.    s(22) = (  0.0000000  0.0000000  1.0000000 )
                  ( -1.0000000  0.0000000  0.0000000 )
                  (  0.0000000 -1.0000000  0.0000000 )


      isym = 23     120 deg rotation - cart. axis [1,-1,-1]      

 cryst.   s(23) = (     0         -1          0      )
                  (     0          0          1      )
                  (    -1          0          0      )

 cart.    s(23) = (  0.0000000  0.0000000 -1.0000000 )
                  ( -1.0000000  0.0000000  0.0000000 )
                  (  0.0000000  1.0000000  0.0000000 )


      isym = 24     120 deg rotation - cart. axis [-1,-1,1]      

 cryst.   s(24) = (     0          1          0      )
                  (     0          0         -1      )
                  (    -1          0          0      )

 cart.    s(24) = (  0.0000000  0.0000000 -1.0000000 )
                  (  1.0000000  0.0000000  0.0000000 )
                  (  0.0000000 -1.0000000  0.0000000 )


      isym = 25     inversion                                    

 cryst.   s(25) = (    -1          0          0      )
                  (     0         -1          0      )
                  (     0          0         -1      )

 cart.    s(25) = ( -1.0000000  0.0000000  0.0000000 )
                  (  0.0000000 -1.0000000  0.0000000 )
                  (  0.0000000  0.0000000 -1.0000000 )


      isym = 26     inv. 180 deg rotation - cart. axis [0,0,1]   

 cryst.   s(26) = (     1          0          0      )
                  (     0          1          0      )
                  (     0          0         -1      )

 cart.    s(26) = (  1.0000000  0.0000000  0.0000000 )
                  (  0.0000000  1.0000000  0.0000000 )
                  (  0.0000000  0.0000000 -1.0000000 )


      isym = 27     inv. 180 deg rotation - cart. axis [0,1,0]   

 cryst.   s(27) = (     1          0          0      )
                  (     0         -1          0      )
                  (     0          0          1      )

 cart.    s(27) = (  1.0000000  0.0000000  0.0000000 )
                  (  0.0000000 -1.0000000  0.0000000 )
                  (  0.0000000  0.0000000  1.0000000 )


      isym = 28     inv. 180 deg rotation - cart. axis [1,0,0]   

 cryst.   s(28) = (    -1          0          0      )
                  (     0          1          0      )
                  (     0          0          1      )

 cart.    s(28) = ( -1.0000000  0.0000000  0.0000000 )
                  (  0.0000000  1.0000000  0.0000000 )
                  (  0.0000000  0.0000000  1.0000000 )


      isym = 29     inv. 180 deg rotation - cart. axis [1,1,0]   

 cryst.   s(29) = (     0         -1          0      )
                  (    -1          0          0      )
                  (     0          0          1      )

 cart.    s(29) = (  0.0000000 -1.0000000  0.0000000 )
                  ( -1.0000000  0.0000000  0.0000000 )
                  (  0.0000000  0.0000000  1.0000000 )


      isym = 30     inv. 180 deg rotation - cart. axis [1,-1,0]  

 cryst.   s(30) = (     0          1          0      )
                  (     1          0          0      )
                  (     0          0          1      )

 cart.    s(30) = (  0.0000000  1.0000000  0.0000000 )
                  (  1.0000000  0.0000000  0.0000000 )
                  (  0.0000000  0.0000000  1.0000000 )


      isym = 31     inv.  90 deg rotation - cart. axis [0,0,-1]  

 cryst.   s(31) = (     0          1          0      )
                  (    -1          0          0      )
                  (     0          0         -1      )

 cart.    s(31) = (  0.0000000 -1.0000000  0.0000000 )
                  (  1.0000000  0.0000000  0.0000000 )
                  (  0.0000000  0.0000000 -1.0000000 )


      isym = 32     inv.  90 deg rotation - cart. axis [0,0,1]   

 cryst.   s(32) = (     0         -1          0      )
                  (     1          0          0      )
                  (     0          0         -1      )

 cart.    s(32) = (  0.0000000  1.0000000  0.0000000 )
                  ( -1.0000000  0.0000000  0.0000000 )
                  (  0.0000000  0.0000000 -1.0000000 )


      isym = 33     inv. 180 deg rotation - cart. axis [1,0,1]   

 cryst.   s(33) = (     0          0         -1      )
                  (     0          1          0      )
                  (    -1          0          0      )

 cart.    s(33) = (  0.0000000  0.0000000 -1.0000000 )
                  (  0.0000000  1.0000000  0.0000000 )
                  ( -1.0000000  0.0000000  0.0000000 )


      isym = 34     inv. 180 deg rotation - cart. axis [-1,0,1]  

 cryst.   s(34) = (     0          0          1      )
                  (     0          1          0      )
                  (     1          0          0      )

 cart.    s(34) = (  0.0000000  0.0000000  1.0000000 )
                  (  0.0000000  1.0000000  0.0000000 )
                  (  1.0000000  0.0000000  0.0000000 )


      isym = 35     inv.  90 deg rotation - cart. axis [0,1,0]   

 cryst.   s(35) = (     0          0          1      )
                  (     0         -1          0      )
                  (    -1          0          0      )

 cart.    s(35) = (  0.0000000  0.0000000 -1.0000000 )
                  (  0.0000000 -1.0000000  0.0000000 )
                  (  1.0000000  0.0000000  0.0000000 )


      isym = 36     inv.  90 deg rotation - cart. axis [0,-1,0]  

 cryst.   s(36) = (     0          0         -1      )
                  (     0         -1          0      )
                  (     1          0          0      )

 cart.    s(36) = (  0.0000000  0.0000000  1.0000000 )
                  (  0.0000000 -1.0000000  0.0000000 )
                  ( -1.0000000  0.0000000  0.0000000 )


      isym = 37     inv. 180 deg rotation - cart. axis [0,1,1]   

 cryst.   s(37) = (     1          0          0      )
                  (     0          0         -1      )
                  (     0         -1          0      )

 cart.    s(37) = (  1.0000000  0.0000000  0.0000000 )
                  (  0.0000000  0.0000000 -1.0000000 )
                  (  0.0000000 -1.0000000  0.0000000 )


      isym = 38     inv. 180 deg rotation - cart. axis [0,1,-1]  

 cryst.   s(38) = (     1          0          0      )
                  (     0          0          1      )
                  (     0          1          0      )

 cart.    s(38) = (  1.0000000  0.0000000  0.0000000 )
                  (  0.0000000  0.0000000  1.0000000 )
                  (  0.0000000  1.0000000  0.0000000 )


      isym = 39     inv.  90 deg rotation - cart. axis [-1,0,0]  

 cryst.   s(39) = (    -1          0          0      )
                  (     0          0          1      )
                  (     0         -1          0      )

 cart.    s(39) = ( -1.0000000  0.0000000  0.0000000 )
                  (  0.0000000  0.0000000 -1.0000000 )
                  (  0.0000000  1.0000000  0.0000000 )


      isym = 40     inv.  90 deg rotation - cart. axis [1,0,0]   

 cryst.   s(40) = (    -1          0          0      )
                  (     0          0         -1      )
                  (     0          1          0      )

 cart.    s(40) = ( -1.0000000  0.0000000  0.0000000 )
                  (  0.0000000  0.0000000  1.0000000 )
                  (  0.0000000 -1.0000000  0.0000000 )


      isym = 41     inv. 120 deg rotation - cart. axis [-1,-1,-1]

 cryst.   s(41) = (     0          0         -1      )
                  (    -1          0          0      )
                  (     0         -1          0      )

 cart.    s(41) = (  0.0000000 -1.0000000  0.0000000 )
                  (  0.0000000  0.0000000 -1.0000000 )
                  ( -1.0000000  0.0000000  0.0000000 )


      isym = 42     inv. 120 deg rotation - cart. axis [-1,1,1]  

 cryst.   s(42) = (     0          0          1      )
                  (     1          0          0      )
                  (     0         -1          0      )

 cart.    s(42) = (  0.0000000  1.0000000  0.0000000 )
                  (  0.0000000  0.0000000 -1.0000000 )
                  (  1.0000000  0.0000000  0.0000000 )


      isym = 43     inv. 120 deg rotation - cart. axis [1,1,-1]  

 cryst.   s(43) = (     0          0          1      )
                  (    -1          0          0      )
                  (     0          1          0      )

 cart.    s(43) = (  0.0000000 -1.0000000  0.0000000 )
                  (  0.0000000  0.0000000  1.0000000 )
                  (  1.0000000  0.0000000  0.0000000 )


      isym = 44     inv. 120 deg rotation - cart. axis [1,-1,1]  

 cryst.   s(44) = (     0          0         -1      )
                  (     1          0          0      )
                  (     0          1          0      )

 cart.    s(44) = (  0.0000000  1.0000000  0.0000000 )
                  (  0.0000000  0.0000000  1.0000000 )
                  ( -1.0000000  0.0000000  0.0000000 )


      isym = 45     inv. 120 deg rotation - cart. axis [1,1,1]   

 cryst.   s(45) = (     0         -1          0      )
                  (     0          0         -1      )
                  (    -1          0          0      )

 cart.    s(45) = (  0.0000000  0.0000000 -1.0000000 )
                  ( -1.0000000  0.0000000  0.0000000 )
                  (  0.0000000 -1.0000000  0.0000000 )


      isym = 46     inv. 120 deg rotation - cart. axis [-1,1,-1] 

 cryst.   s(46) = (     0          1          0      )
                  (     0          0          1      )
                  (    -1          0          0      )

 cart.    s(46) = (  0.0000000  0.0000000 -1.0000000 )
                  (  1.0000000  0.0000000  0.0000000 )
                  (  0.0000000  1.0000000  0.0000000 )


      isym = 47     inv. 120 deg rotation - cart. axis [1,-1,-1] 

 cryst.   s(47) = (     0          1          0      )
                  (     0          0         -1      )
                  (     1          0          0      )

 cart.    s(47) = (  0.0000000  0.0000000  1.0000000 )
                  (  1.0000000  0.0000000  0.0000000 )
                  (  0.0000000 -1.0000000  0.0000000 )


      isym = 48     inv. 120 deg rotation - cart. axis [-1,-1,1] 

 cryst.   s(48) = (     0         -1          0      )
                  (     0          0          1      )
                  (     1          0          0      )

 cart.    s(48) = (  0.0000000  0.0000000  1.0000000 )
                  ( -1.0000000  0.0000000  0.0000000 )
                  (  0.0000000  1.0000000  0.0000000 )


     point group O_h (m-3m) 
     there are 10 classes
     the character table:

       E     8C3   3C2   6C4   6C2'  i     8S6   3s_h  6S4   6s_d 
A_1g   1.00  1.00  1.00  1.00  1.00  1.00  1.00  1.00  1.00  1.00
A_2g   1.00  1.00  1.00 -1.00 -1.00  1.00  1.00  1.00 -1.00 -1.00
E_g    2.00 -1.00  2.00  0.00  0.00  2.00 -1.00  2.00  0.00  0.00
T_1g   3.00  0.00 -1.00  1.00 -1.00  3.00  0.00 -1.00  1.00 -1.00
T_2g   3.00  0.00 -1.00 -1.00  1.00  3.00  0.00 -1.00 -1.00  1.00
A_1u   1.00  1.00  1.00  1.00  1.00 -1.00 -1.00 -1.00 -1.00 -1.00
A_2u   1.00  1.00  1.00 -1.00 -1.00 -1.00 -1.00 -1.00  1.00  1.00
E_u    2.00 -1.00  2.00  0.00  0.00 -2.00  1.00 -2.00  0.00  0.00
T_1u   3.00  0.00 -1.00  1.00 -1.00 -3.00  0.00  1.00 -1.00  1.00
T_2u   3.00  0.00 -1.00 -1.00  1.00 -3.00  0.00  1.00  1.00 -1.00

     the symmetry operations in each class and the name of the first element:

     E        1
          identity                                               
     8C3     17   19   20   18   24   21   22   23
          120 deg rotation - cart. axis [-1,-1,-1]               
     3C2      2    4    3
          180 deg rotation - cart. axis [0,0,1]                  
     6C4      7    8   15   16   12   11
           90 deg rotation - cart. axis [0,0,-1]                 
     6C2'     5    6   14   13   10    9
          180 deg rotation - cart. axis [1,1,0]                  
     i       25
          inversion                                              
     8S6     41   43   44   42   48   45   46   47
          inv. 120 deg rotation - cart. axis [-1,-1,-1]          
     3s_h    26   28   27
          inv. 180 deg rotation - cart. axis [0,0,1]             
     6S4     31   32   39   40   36   35
          inv.  90 deg rotation - cart. axis [0,0,-1]            
     6s_d    29   30   38   37   34   33
          inv. 180 deg rotation - cart. axis [1,1,0]             

   Cartesian axes

     site n.     atom                  positions (alat units)
         1           Fe  tau(   1) = (   0.0000000   0.0000000   0.0000000  )
         2           Mg  tau(   2) = (   0.0000000   0.5000000   0.5000000  )
         3           Mg  tau(   3) = (   0.5000000   0.0000000   0.5000000  )
         4           Mg  tau(   4) = (   0.5000000   0.5000000   0.0000000  )
         5           O   tau(   5) = (   0.5000000   0.5000000   0.5000000  )
         6           O   tau(   6) = (   0.5000000   0.0000000   0.0000000  )
         7           O   tau(   7) = (   0.0000000   0.5000000   0.0000000  )
         8           O   tau(   8) = (   0.0000000   0.0000000   0.5000000  )

   Crystallographic axes

     site n.     atom                  positions (cryst. coord.)
         1           Fe  tau(   1) = (  0.0000000  0.0000000  0.0000000  )
         2           Mg  tau(   2) = (  0.0000000  0.5000000  0.5000000  )
         3           Mg  tau(   3) = (  0.5000000  0.0000000  0.5000000  )
         4           Mg  tau(   4) = (  0.5000000  0.5000000  0.0000000  )
         5           O   tau(   5) = (  0.5000000  0.5000000  0.5000000  )
         6           O   tau(   6) = (  0.5000000  0.0000000  0.0000000  )
         7           O   tau(   7) = (  0.0000000  0.5000000  0.0000000  )
         8           O   tau(   8) = (  0.0000000  0.0000000  0.5000000  )

     number of k points=     4  Fermi-Dirac smearing, width (Ry)=  0.0019
                       cart. coord. in units 2pi/alat
        k(    1) = (   0.0000000   0.0000000   0.0000000), wk =   0.1250000
        k(    2) = (   0.0000000   0.0000000  -0.5000000), wk =   0.3750000
        k(    3) = (   0.0000000  -0.5000000  -0.5000000), wk =   0.3750000
        k(    4) = (  -0.5000000  -0.5000000  -0.5000000), wk =   0.1250000

                       cryst. coord.
        k(    1) = (   0.0000000   0.0000000   0.0000000), wk =   0.1250000
        k(    2) = (   0.0000000   0.0000000  -0.5000000), wk =   0.3750000
        k(    3) = (   0.0000000  -0.5000000  -0.5000000), wk =   0.3750000
        k(    4) = (  -0.5000000  -0.5000000  -0.5000000), wk =   0.1250000

     Dense  grid:  1540499 G-vectors     FFT dimensions: ( 144, 144, 144)

     Dynamical RAM for                 wfc:       1.96 MB

     Dynamical RAM for     wfc (w. buffer):      17.63 MB

     Dynamical RAM for                 EXX:     613.06 MB

     Dynamical RAM for           str. fact:       1.47 MB

     Dynamical RAM for           local pot:       0.00 MB

     Dynamical RAM for          nlocal pot:       1.84 MB

     Dynamical RAM for                qrad:       1.98 MB

     Dynamical RAM for          rho,v,vnew:       5.79 MB

     Dynamical RAM for               rhoin:       1.93 MB

     Dynamical RAM for            rho*nmix:      15.67 MB

     Dynamical RAM for           G-vectors:       2.08 MB

     Dynamical RAM for          h,s,v(r/c):       0.00 MB

     Dynamical RAM for          <psi|beta>:       0.01 MB

     Dynamical RAM for                 psi:       3.92 MB

     Dynamical RAM for                hpsi:       3.92 MB

     Dynamical RAM for      wfcinit/wfcrot:       6.43 MB

     Estimated static dynamical RAM per process >     666.24 MB

     Estimated max dynamical RAM per process >     674.09 MB

     Estimated total dynamical RAM >      31.60 GB
     Generating pointlists ...
     new r_m :   0.2063 (alat units)  1.6413 (a.u.) for type    1
     new r_m :   0.2063 (alat units)  1.6413 (a.u.) for type    2
     new r_m :   0.2063 (alat units)  1.6413 (a.u.) for type    3

     The initial density is read from file :
     pwscf_output/pwscf.save/charge-density

     Starting wfcs are   52 randomized atomic wfcs

     total cpu time spent up to now is        5.2 secs

     Self-consistent Calculation

     iteration #  1     ecut=   800.00 Ry     beta= 0.20
     Davidson diagonalization with overlap
     c_bands:  1 eigenvalues not converged
     c_bands:  1 eigenvalues not converged
     c_bands:  3 eigenvalues not converged
     ethr =  1.00E-05,  avg # of iterations = 18.9

     total cpu time spent up to now is       14.1 secs

     total energy              =    -380.79283027 Ry
     estimated scf accuracy    <       4.59981984 Ry

     total magnetization       =    -0.00 Bohr mag/cell
     absolute magnetization    =     0.00 Bohr mag/cell

     iteration #  2     ecut=   800.00 Ry     beta= 0.20
     Davidson diagonalization with overlap
     ethr =  1.00E-02,  avg # of iterations =  1.8

     total cpu time spent up to now is       16.3 secs

     total energy              =    -381.98017060 Ry
     estimated scf accuracy    <       1.53360516 Ry

     total magnetization       =    -0.00 Bohr mag/cell
     absolute magnetization    =     0.00 Bohr mag/cell

     iteration #  3     ecut=   800.00 Ry     beta= 0.20
     Davidson diagonalization with overlap
     ethr =  3.33E-03,  avg # of iterations =  2.0

     total cpu time spent up to now is       18.5 secs

     total energy              =    -382.01960364 Ry
     estimated scf accuracy    <       0.18348389 Ry

     total magnetization       =     0.00 Bohr mag/cell
     absolute magnetization    =     0.00 Bohr mag/cell

     iteration #  4     ecut=   800.00 Ry     beta= 0.20
     Davidson diagonalization with overlap
     ethr =  3.99E-04,  avg # of iterations =  2.2

     total cpu time spent up to now is       20.9 secs

     total energy              =    -382.04025176 Ry
     estimated scf accuracy    <       0.00965526 Ry

     total magnetization       =     0.00 Bohr mag/cell
     absolute magnetization    =     0.00 Bohr mag/cell

     iteration #  5     ecut=   800.00 Ry     beta= 0.20
     Davidson diagonalization with overlap
     ethr =  2.10E-05,  avg # of iterations =  4.5

     total cpu time spent up to now is       23.8 secs

     total energy              =    -382.04260276 Ry
     estimated scf accuracy    <       0.00595869 Ry

     total magnetization       =    -0.00 Bohr mag/cell
     absolute magnetization    =     0.00 Bohr mag/cell

     iteration #  6     ecut=   800.00 Ry     beta= 0.20
     Davidson diagonalization with overlap
     ethr =  1.30E-05,  avg # of iterations =  2.0

     total cpu time spent up to now is       26.0 secs

     total energy              =    -382.04325586 Ry
     estimated scf accuracy    <       0.00059148 Ry

     total magnetization       =     0.00 Bohr mag/cell
     absolute magnetization    =     0.00 Bohr mag/cell

     iteration #  7     ecut=   800.00 Ry     beta= 0.20
     Davidson diagonalization with overlap
     c_bands:  1 eigenvalues not converged
     ethr =  1.29E-06,  avg # of iterations =  4.4

     total cpu time spent up to now is       28.5 secs

     total energy              =    -382.04330085 Ry
     estimated scf accuracy    <       0.00007811 Ry

     total magnetization       =    -0.00 Bohr mag/cell
     absolute magnetization    =     0.00 Bohr mag/cell

     iteration #  8     ecut=   800.00 Ry     beta= 0.20
     Davidson diagonalization with overlap
     ethr =  1.70E-07,  avg # of iterations =  2.2

     total cpu time spent up to now is       30.7 secs

     total energy              =    -382.04331762 Ry
     estimated scf accuracy    <       0.00002453 Ry

     total magnetization       =     0.00 Bohr mag/cell
     absolute magnetization    =     0.00 Bohr mag/cell

     iteration #  9     ecut=   800.00 Ry     beta= 0.20
     Davidson diagonalization with overlap
     ethr =  5.33E-08,  avg # of iterations =  3.9

     total cpu time spent up to now is       33.6 secs

     total energy              =    -382.04332786 Ry
     estimated scf accuracy    <       0.00018144 Ry

     total magnetization       =    -0.00 Bohr mag/cell
     absolute magnetization    =     0.01 Bohr mag/cell

     iteration # 10     ecut=   800.00 Ry     beta= 0.20
     Davidson diagonalization with overlap
     ethr =  5.33E-08,  avg # of iterations =  2.0

     total cpu time spent up to now is       35.9 secs

     total energy              =    -382.04332295 Ry
     estimated scf accuracy    <       0.00009105 Ry

     total magnetization       =    -0.00 Bohr mag/cell
     absolute magnetization    =     0.01 Bohr mag/cell

     iteration # 11     ecut=   800.00 Ry     beta= 0.20
     Davidson diagonalization with overlap
     ethr =  5.33E-08,  avg # of iterations =  2.0

     total cpu time spent up to now is       38.2 secs

     total energy              =    -382.04331983 Ry
     estimated scf accuracy    <       0.00004937 Ry

     total magnetization       =     0.00 Bohr mag/cell
     absolute magnetization    =     0.01 Bohr mag/cell

     iteration # 12     ecut=   800.00 Ry     beta= 0.20
     Davidson diagonalization with overlap
     ethr =  5.33E-08,  avg # of iterations =  2.0

     total cpu time spent up to now is       40.5 secs

     total energy              =    -382.04332669 Ry
     estimated scf accuracy    <       0.00002156 Ry

     total magnetization       =     0.00 Bohr mag/cell
     absolute magnetization    =     0.01 Bohr mag/cell

     iteration # 13     ecut=   800.00 Ry     beta= 0.20
     Davidson diagonalization with overlap
     ethr =  4.69E-08,  avg # of iterations =  2.0

     total cpu time spent up to now is       42.9 secs

     total energy              =    -382.04332258 Ry
     estimated scf accuracy    <       0.00004538 Ry

     total magnetization       =    -0.00 Bohr mag/cell
     absolute magnetization    =     0.00 Bohr mag/cell

     iteration # 14     ecut=   800.00 Ry     beta= 0.20
     Davidson diagonalization with overlap
     ethr =  4.69E-08,  avg # of iterations =  2.0

     total cpu time spent up to now is       45.1 secs

     total energy              =    -382.04332223 Ry
     estimated scf accuracy    <       0.00001951 Ry

     total magnetization       =     0.00 Bohr mag/cell
     absolute magnetization    =     0.00 Bohr mag/cell

     iteration # 15     ecut=   800.00 Ry     beta= 0.20
     Davidson diagonalization with overlap
     ethr =  4.24E-08,  avg # of iterations =  1.0

     total cpu time spent up to now is       47.2 secs

     total energy              =    -382.04331398 Ry
     estimated scf accuracy    <       0.00001373 Ry

     total magnetization       =     0.00 Bohr mag/cell
     absolute magnetization    =     0.00 Bohr mag/cell

     iteration # 16     ecut=   800.00 Ry     beta= 0.20
     Davidson diagonalization with overlap
     ethr =  2.98E-08,  avg # of iterations =  3.5

     total cpu time spent up to now is       50.0 secs

     total energy              =    -382.04331861 Ry
     estimated scf accuracy    <       0.00005167 Ry

     total magnetization       =     0.00 Bohr mag/cell
     absolute magnetization    =     0.00 Bohr mag/cell

     iteration # 17     ecut=   800.00 Ry     beta= 0.20
     Davidson diagonalization with overlap
     ethr =  2.98E-08,  avg # of iterations =  2.1

     total cpu time spent up to now is       52.6 secs

     total energy              =    -382.04331854 Ry
     estimated scf accuracy    <       0.00001001 Ry

     total magnetization       =    -0.00 Bohr mag/cell
     absolute magnetization    =     0.00 Bohr mag/cell

     iteration # 18     ecut=   800.00 Ry     beta= 0.20
     Davidson diagonalization with overlap
     ethr =  2.18E-08,  avg # of iterations =  2.0

     total cpu time spent up to now is       55.0 secs

     total energy              =    -382.04331979 Ry
     estimated scf accuracy    <       0.00000065 Ry

     total magnetization       =     0.00 Bohr mag/cell
     absolute magnetization    =     0.00 Bohr mag/cell

     iteration # 19     ecut=   800.00 Ry     beta= 0.20
     Davidson diagonalization with overlap
     ethr =  1.42E-09,  avg # of iterations =  3.1

     total cpu time spent up to now is       57.5 secs

     total energy              =    -382.04331983 Ry
     estimated scf accuracy    <       0.00000021 Ry

     total magnetization       =     0.00 Bohr mag/cell
     absolute magnetization    =     0.00 Bohr mag/cell

     iteration # 20     ecut=   800.00 Ry     beta= 0.20
     Davidson diagonalization with overlap
     ethr =  4.67E-10,  avg # of iterations =  2.2

     total cpu time spent up to now is       59.8 secs

     total energy              =    -382.04331982 Ry
     estimated scf accuracy    <       0.00000008 Ry

     total magnetization       =     0.00 Bohr mag/cell
     absolute magnetization    =     0.00 Bohr mag/cell

     iteration # 21     ecut=   800.00 Ry     beta= 0.20
     Davidson diagonalization with overlap
     ethr =  1.71E-10,  avg # of iterations =  3.1

     total cpu time spent up to now is       62.3 secs

     total energy              =    -382.04331984 Ry
     estimated scf accuracy    <          3.8E-09 Ry

     total magnetization       =     0.00 Bohr mag/cell
     absolute magnetization    =     0.00 Bohr mag/cell

     iteration # 22     ecut=   800.00 Ry     beta= 0.20
     Davidson diagonalization with overlap
     ethr =  8.20E-12,  avg # of iterations =  3.4

     total cpu time spent up to now is       64.9 secs

     total energy              =    -382.04331984 Ry
     estimated scf accuracy    <          8.6E-10 Ry

     total magnetization       =    -0.00 Bohr mag/cell
     absolute magnetization    =     0.00 Bohr mag/cell

     iteration # 23     ecut=   800.00 Ry     beta= 0.20
     Davidson diagonalization with overlap
     ethr =  1.87E-12,  avg # of iterations =  2.0

     total cpu time spent up to now is       67.3 secs

     total energy              =    -382.04331984 Ry
     estimated scf accuracy    <          5.3E-10 Ry

     total magnetization       =    -0.00 Bohr mag/cell
     absolute magnetization    =     0.00 Bohr mag/cell

     iteration # 24     ecut=   800.00 Ry     beta= 0.20
     Davidson diagonalization with overlap
     ethr =  1.14E-12,  avg # of iterations =  1.8

     total cpu time spent up to now is       69.5 secs

     total energy              =    -382.04331984 Ry
     estimated scf accuracy    <          6.6E-10 Ry

     total magnetization       =    -0.00 Bohr mag/cell
     absolute magnetization    =     0.00 Bohr mag/cell

     iteration # 25     ecut=   800.00 Ry     beta= 0.20
     Davidson diagonalization with overlap
     ethr =  1.14E-12,  avg # of iterations =  1.1

     total cpu time spent up to now is       71.6 secs

     total energy              =    -382.04331984 Ry
     estimated scf accuracy    <          5.7E-10 Ry

     total magnetization       =    -0.00 Bohr mag/cell
     absolute magnetization    =     0.00 Bohr mag/cell

     iteration # 26     ecut=   800.00 Ry     beta= 0.20
     Davidson diagonalization with overlap
     ethr =  1.14E-12,  avg # of iterations =  3.6

     total cpu time spent up to now is       74.6 secs

     total energy              =    -382.04331984 Ry
     estimated scf accuracy    <          6.0E-09 Ry

     total magnetization       =     0.00 Bohr mag/cell
     absolute magnetization    =     0.00 Bohr mag/cell

     iteration # 27     ecut=   800.00 Ry     beta= 0.20
     Davidson diagonalization with overlap
     ethr =  1.14E-12,  avg # of iterations =  3.6

     total cpu time spent up to now is       77.7 secs

     total energy              =    -382.04331984 Ry
     estimated scf accuracy    <          5.0E-10 Ry

     total magnetization       =     0.00 Bohr mag/cell
     absolute magnetization    =     0.00 Bohr mag/cell

     iteration # 28     ecut=   800.00 Ry     beta= 0.20
     Davidson diagonalization with overlap
     ethr =  1.08E-12,  avg # of iterations =  2.9

     total cpu time spent up to now is       80.2 secs

     total energy              =    -382.04331984 Ry
     estimated scf accuracy    <          1.5E-09 Ry

     total magnetization       =    -0.00 Bohr mag/cell
     absolute magnetization    =     0.00 Bohr mag/cell

     iteration # 29     ecut=   800.00 Ry     beta= 0.20
     Davidson diagonalization with overlap
     ethr =  1.08E-12,  avg # of iterations =  3.8

     total cpu time spent up to now is       83.0 secs

     total energy              =    -382.04331984 Ry
     estimated scf accuracy    <          1.1E-09 Ry

     total magnetization       =     0.00 Bohr mag/cell
     absolute magnetization    =     0.00 Bohr mag/cell

     iteration # 30     ecut=   800.00 Ry     beta= 0.20
     Davidson diagonalization with overlap
     ethr =  1.08E-12,  avg # of iterations =  2.2
 
     Magnetic moment per site:
     atom:    1    charge:   13.5569    magn:   -0.0000    constr:    0.0000
     atom:    2    charge:    0.2517    magn:   -0.0000    constr:    0.0000
     atom:    3    charge:    0.2517    magn:   -0.0000    constr:    0.0000
     atom:    4    charge:    0.2517    magn:   -0.0000    constr:    0.0000
     atom:    5    charge:    5.8445    magn:    0.0000    constr:    0.0000
     atom:    6    charge:    5.8103    magn:    0.0000    constr:    0.0000
     atom:    7    charge:    5.8103    magn:    0.0000    constr:    0.0000
     atom:    8    charge:    5.8103    magn:    0.0000    constr:    0.0000

     total cpu time spent up to now is       85.4 secs

     End of self-consistent calculation

 ------ SPIN UP ------------


          k = 0.0000 0.0000 0.0000 (192431 PWs)   bands (ev):

   -76.3784 -42.0130 -42.0130 -42.0130 -10.1907  -8.8197  -8.8197  -8.5507
     3.1704   3.1704   3.1704   5.8314   5.8314   5.8314   5.9024   5.9024
     5.9024   7.2039   7.2039   7.2039   8.6835   8.6835   8.6835   9.9583
     9.9583  12.1009  17.4235  17.6828  17.6828  17.9978  17.9978  17.9978

     occupation numbers 
     1.0000   1.0000   1.0000   1.0000   1.0000   1.0000   1.0000   1.0000
     1.0000   1.0000   1.0000   1.0000   1.0000   1.0000   1.0000   1.0000
     1.0000   1.0000   1.0000   1.0000   1.0000   1.0000   1.0000   0.1442
     0.1442   0.0000   0.0000   0.0000   0.0000   0.0000   0.0000   0.0000

          k = 0.0000 0.0000-0.5000 (192616 PWs)   bands (ev):

   -76.3784 -42.0141 -42.0130 -42.0130  -9.5392  -9.3861  -8.7742  -8.5403
     3.9289   4.1179   4.1179   4.2686   4.2686   4.6013   5.2964   5.4380
     6.3955   6.3955   6.3969   6.3969   8.7256   9.5490   9.5490   9.9639
    10.9174  15.5106  15.7384  18.7537  19.0771  19.0771  19.8044  19.9405

     occupation numbers 
     1.0000   1.0000   1.0000   1.0000   1.0000   1.0000   1.0000   1.0000
     1.0000   1.0000   1.0000   1.0000   1.0000   1.0000   1.0000   1.0000
     1.0000   1.0000   1.0000   1.0000   1.0000   1.0000   1.0000   0.1195
     0.0000   0.0000   0.0000   0.0000   0.0000   0.0000   0.0000   0.0000

          k = 0.0000-0.5000-0.5000 (192516 PWs)   bands (ev):

   -76.3784 -42.0141 -42.0141 -42.0129  -9.1221  -9.0319  -9.0319  -8.8307
     3.2421   3.4200   3.8097   3.8097   4.8080   4.8618   4.8618   5.1896
     5.3512   6.5186   6.6094   6.6094   9.5510   9.5510   9.8242  10.3225
    12.3454  16.9808  16.9808  16.9996  17.0618  19.2239  19.3433  20.1291

     occupation numbers 
     1.0000   1.0000   1.0000   1.0000   1.0000   1.0000   1.0000   1.0000
     1.0000   1.0000   1.0000   1.0000   1.0000   1.0000   1.0000   1.0000
     1.0000   1.0000   1.0000   1.0000   1.0000   1.0000   0.9679   0.0000
     0.0000   0.0000   0.0000   0.0000   0.0000   0.0000   0.0000   0.0000

          k =-0.5000-0.5000-0.5000 (192672 PWs)   bands (ev):

   -76.3784 -42.0140 -42.0140 -42.0140  -8.9692  -8.9692  -8.9692  -8.7645
     2.4422   2.4813   2.4813   2.4813   4.8052   4.8052   6.4486   6.4486
     6.4486   6.5144   6.5144   6.5144   9.8737   9.8737   9.8737  12.3433
    12.3433  15.4264  15.4418  15.4418  15.4418  19.8044  20.3427  20.3427

     occupation numbers 
     1.0000   1.0000   1.0000   1.0000   1.0000   1.0000   1.0000   1.0000
     1.0000   1.0000   1.0000   1.0000   1.0000   1.0000   1.0000   1.0000
     1.0000   1.0000   1.0000   1.0000   0.8164   0.8164   0.8164   0.0000
     0.0000   0.0000   0.0000   0.0000   0.0000   0.0000   0.0000   0.0000

 ------ SPIN DOWN ----------


          k = 0.0000 0.0000 0.0000 (192431 PWs)   bands (ev):

   -76.3784 -42.0130 -42.0130 -42.0130 -10.1907  -8.8197  -8.8197  -8.5507
     3.1704   3.1704   3.1704   5.8314   5.8314   5.8314   5.9024   5.9024
     5.9024   7.2039   7.2039   7.2039   8.6835   8.6835   8.6835   9.9583
     9.9583  12.1009  17.4235  17.6828  17.6828  17.9978  17.9978  17.9978

     occupation numbers 
     1.0000   1.0000   1.0000   1.0000   1.0000   1.0000   1.0000   1.0000
     1.0000   1.0000   1.0000   1.0000   1.0000   1.0000   1.0000   1.0000
     1.0000   1.0000   1.0000   1.0000   1.0000   1.0000   1.0000   0.1442
     0.1442   0.0000   0.0000   0.0000   0.0000   0.0000   0.0000   0.0000

          k = 0.0000 0.0000-0.5000 (192616 PWs)   bands (ev):

   -76.3784 -42.0141 -42.0130 -42.0130  -9.5392  -9.3861  -8.7742  -8.5403
     3.9289   4.1179   4.1179   4.2686   4.2686   4.6013   5.2964   5.4380
     6.3955   6.3955   6.3969   6.3969   8.7256   9.5490   9.5490   9.9639
    10.9174  15.5106  15.7384  18.7537  19.0771  19.0771  19.8044  19.8231

     occupation numbers 
     1.0000   1.0000   1.0000   1.0000   1.0000   1.0000   1.0000   1.0000
     1.0000   1.0000   1.0000   1.0000   1.0000   1.0000   1.0000   1.0000
     1.0000   1.0000   1.0000   1.0000   1.0000   1.0000   1.0000   0.1195
     0.0000   0.0000   0.0000   0.0000   0.0000   0.0000   0.0000   0.0000

          k = 0.0000-0.5000-0.5000 (192516 PWs)   bands (ev):

   -76.3784 -42.0141 -42.0141 -42.0130  -9.1220  -9.0319  -9.0319  -8.8307
     3.2421   3.4200   3.8097   3.8097   4.8080   4.8618   4.8618   5.1896
     5.3512   6.5186   6.6094   6.6094   9.5510   9.5510   9.8242  10.3225
    12.3454  16.9808  16.9808  16.9996  17.0618  19.2239  19.3433  20.1291

     occupation numbers 
     1.0000   1.0000   1.0000   1.0000   1.0000   1.0000   1.0000   1.0000
     1.0000   1.0000   1.0000   1.0000   1.0000   1.0000   1.0000   1.0000
     1.0000   1.0000   1.0000   1.0000   1.0000   1.0000   0.9679   0.0000
     0.0000   0.0000   0.0000   0.0000   0.0000   0.0000   0.0000   0.0000

          k =-0.5000-0.5000-0.5000 (192672 PWs)   bands (ev):

   -76.3784 -42.0140 -42.0140 -42.0140  -8.9692  -8.9692  -8.9692  -8.7645
     2.4422   2.4813   2.4813   2.4813   4.8052   4.8052   6.4486   6.4486
     6.4486   6.5144   6.5144   6.5144   9.8737   9.8737   9.8737  12.3433
    12.3433  15.4264  15.4418  15.4418  15.4418  19.8044  20.3427  20.3427

     occupation numbers 
     1.0000   1.0000   1.0000   1.0000   1.0000   1.0000   1.0000   1.0000
     1.0000   1.0000   1.0000   1.0000   1.0000   1.0000   1.0000   1.0000
     1.0000   1.0000   1.0000   1.0000   0.8164   0.8164   0.8164   0.0000
     0.0000   0.0000   0.0000   0.0000   0.0000   0.0000   0.0000   0.0000

     the spin up/dw Fermi energies are     9.9122    9.9122 ev

!    total energy              =    -382.04331984 Ry
     estimated scf accuracy    <          9.4E-11 Ry
     smearing contrib. (-TS)   =      -0.00179531 Ry
     internal energy E=F+TS    =    -382.04152453 Ry

     total magnetization       =     0.00 Bohr mag/cell
     absolute magnetization    =     0.00 Bohr mag/cell

     convergence has been achieved in  30 iterations

     Using ACE for calculation of exact exchange

     EXX grid:  1540499 G-vectors     FFT dimensions: ( 144, 144, 144)

     EXX: now go back to refine exchange calculation

     total cpu time spent up to now is      585.7 secs

     Self-consistent Calculation

     iteration #  1     ecut=   800.00 Ry     beta= 0.20
     Davidson diagonalization with overlap
     ethr =  1.08E-12,  avg # of iterations = 14.8

     total cpu time spent up to now is      596.8 secs

     total energy              =    -381.87764365 Ry
     estimated scf accuracy    <       0.00994863 Ry

     total magnetization       =     0.00 Bohr mag/cell
     absolute magnetization    =     0.00 Bohr mag/cell

     iteration #  2     ecut=   800.00 Ry     beta= 0.20
     Davidson diagonalization with overlap
     ethr =  2.16E-05,  avg # of iterations =  2.0

     total cpu time spent up to now is      599.2 secs

     total energy              =    -381.87770451 Ry
     estimated scf accuracy    <       0.00290112 Ry

     total magnetization       =    -0.00 Bohr mag/cell
     absolute magnetization    =     0.00 Bohr mag/cell

     iteration #  3     ecut=   800.00 Ry     beta= 0.20
     Davidson diagonalization with overlap
     ethr =  6.31E-06,  avg # of iterations =  1.6

     total cpu time spent up to now is      601.4 secs

     total energy              =    -381.87768162 Ry
     estimated scf accuracy    <       0.00103038 Ry

     total magnetization       =     0.00 Bohr mag/cell
     absolute magnetization    =     0.00 Bohr mag/cell

     iteration #  4     ecut=   800.00 Ry     beta= 0.20
     Davidson diagonalization with overlap
     ethr =  2.24E-06,  avg # of iterations =  1.0

     total cpu time spent up to now is      603.6 secs

     total energy              =    -381.87770632 Ry
     estimated scf accuracy    <       0.00000825 Ry

     total magnetization       =    -0.00 Bohr mag/cell
     absolute magnetization    =     0.00 Bohr mag/cell

     iteration #  5     ecut=   800.00 Ry     beta= 0.20
     Davidson diagonalization with overlap
     ethr =  1.79E-08,  avg # of iterations =  4.0

     total cpu time spent up to now is      606.6 secs

     total energy              =    -381.87770927 Ry
     estimated scf accuracy    <       0.00000136 Ry

     total magnetization       =    -0.00 Bohr mag/cell
     absolute magnetization    =     0.00 Bohr mag/cell

     iteration #  6     ecut=   800.00 Ry     beta= 0.20
     Davidson diagonalization with overlap
     ethr =  2.95E-09,  avg # of iterations =  2.0

     total cpu time spent up to now is      609.1 secs

     total energy              =    -381.87770936 Ry
     estimated scf accuracy    <       0.00000041 Ry

     total magnetization       =     0.00 Bohr mag/cell
     absolute magnetization    =     0.00 Bohr mag/cell

     iteration #  7     ecut=   800.00 Ry     beta= 0.20
     Davidson diagonalization with overlap
     ethr =  8.90E-10,  avg # of iterations =  2.0

     total cpu time spent up to now is      611.7 secs

     total energy              =    -381.87770937 Ry
     estimated scf accuracy    <       0.00000018 Ry

     total magnetization       =     0.00 Bohr mag/cell
     absolute magnetization    =     0.00 Bohr mag/cell

     iteration #  8     ecut=   800.00 Ry     beta= 0.20
     Davidson diagonalization with overlap
     ethr =  3.94E-10,  avg # of iterations =  2.0

     total cpu time spent up to now is      614.2 secs

     total energy              =    -381.87770942 Ry
     estimated scf accuracy    <       0.00000002 Ry

     total magnetization       =     0.00 Bohr mag/cell
     absolute magnetization    =     0.00 Bohr mag/cell

     iteration #  9     ecut=   800.00 Ry     beta= 0.20
     Davidson diagonalization with overlap
     ethr =  3.36E-11,  avg # of iterations =  2.9

     total cpu time spent up to now is      617.2 secs

     total energy              =    -381.87770942 Ry
     estimated scf accuracy    <       0.00000002 Ry

     total magnetization       =     0.00 Bohr mag/cell
     absolute magnetization    =     0.00 Bohr mag/cell

     iteration # 10     ecut=   800.00 Ry     beta= 0.20
     Davidson diagonalization with overlap
     ethr =  3.36E-11,  avg # of iterations =  2.0

     total cpu time spent up to now is      619.9 secs

     total energy              =    -381.87770942 Ry
     estimated scf accuracy    <          2.8E-09 Ry

     total magnetization       =    -0.00 Bohr mag/cell
     absolute magnetization    =     0.00 Bohr mag/cell

     iteration # 11     ecut=   800.00 Ry     beta= 0.20
     Davidson diagonalization with overlap
     ethr =  6.08E-12,  avg # of iterations =  2.1
 
     Magnetic moment per site:
     atom:    1    charge:   13.5276    magn:    0.0003    constr:    0.0000
     atom:    2    charge:    0.2474    magn:    0.0000    constr:    0.0000
     atom:    3    charge:    0.2474    magn:    0.0000    constr:    0.0000
     atom:    4    charge:    0.2474    magn:    0.0000    constr:    0.0000
     atom:    5    charge:    5.8667    magn:    0.0001    constr:    0.0000
     atom:    6    charge:    5.8425    magn:   -0.0000    constr:    0.0000
     atom:    7    charge:    5.8425    magn:   -0.0000    constr:    0.0000
     atom:    8    charge:    5.8425    magn:   -0.0000    constr:    0.0000

     total cpu time spent up to now is      622.4 secs

     End of self-consistent calculation

 ------ SPIN UP ------------


          k = 0.0000 0.0000 0.0000 (192431 PWs)   bands (ev):

   -83.0437 -47.1251 -47.1251 -47.1251 -13.4018 -11.9346 -11.9346 -11.6987
     1.2516   1.2516   1.2516   4.0668   4.0668   4.0668   4.2863   4.2863
     4.2863   5.6414   5.6414   5.6414   6.1022   6.1022   6.1022  11.4560
    11.4560  12.9487  18.5017  18.6144  18.6144  18.7936  18.7936  18.7936

     occupation numbers 
     1.0000   1.0000   1.0000   1.0000   1.0000   1.0000   1.0000   1.0000
     1.0000   1.0000   1.0000   1.0000   1.0000   1.0000   1.0000   1.0000
     1.0000   1.0000   1.0000   1.0000   1.0000   1.0000   1.0000   0.0000
     0.0000   0.0000   0.0000   0.0000   0.0000   0.0000   0.0000   0.0000

          k = 0.0000 0.0000-0.5000 (192616 PWs)   bands (ev):

   -83.0332 -47.1134 -47.1134 -47.1108 -12.7124 -12.5732 -11.9017 -11.6913
     2.1646   2.1647   2.2875   2.4895   2.4895   2.7894   3.5531   3.6421
     4.6128   4.6128   4.8162   4.8162   6.1461   7.1472   7.1476  11.4798
    12.4853  16.5027  16.9340  19.6634  20.2272  20.2272  21.0523  21.0938

     occupation numbers 
     1.0000   1.0000   1.0000   1.0000   1.0000   1.0000   1.0000   1.0000
     1.0000   1.0000   1.0000   1.0000   1.0000   1.0000   1.0000   1.0000
     1.0000   1.0000   1.0000   1.0000   1.0000   1.0000   1.0000   0.0000
     0.0000   0.0000   0.0000   0.0000   0.0000   0.0000   0.0000   0.0000

          k = 0.0000-0.5000-0.5000 (192516 PWs)   bands (ev):

   -83.0241 -47.1147 -47.0946 -47.0946 -12.2749 -12.1894 -12.1894 -12.0225
     1.3965   1.4905   1.9277   1.9277   2.9075   2.9076   3.3802   3.5654
     3.6032   4.8120   4.9188   4.9188   7.1400   7.1404   7.4096  11.8897
    14.1540  18.0339  18.0339  18.1181  18.1782  20.3424  20.4319  21.2147

     occupation numbers 
     1.0000   1.0000   1.0000   1.0000   1.0000   1.0000   1.0000   1.0000
     1.0000   1.0000   1.0000   1.0000   1.0000   1.0000   1.0000   1.0000
     1.0000   1.0000   1.0000   1.0000   1.0000   1.0000   1.0000   0.0000
     0.0000   0.0000   0.0000   0.0000   0.0000   0.0000   0.0000   0.0000

          k =-0.5000-0.5000-0.5000 (192672 PWs)   bands (ev):

   -83.0436 -47.1242 -47.1242 -47.1242 -12.1278 -12.1278 -12.1278 -11.9487
     0.4161   0.4161   0.4162   0.5659   3.3771   3.3771   4.6550   4.6550
     4.6550   4.8114   4.8114   4.8114   7.5701   7.5701   7.5702  14.1527
    14.1527  16.2903  16.2924  16.2924  16.2924  21.3167  21.7154  21.7154

     occupation numbers 
     1.0000   1.0000   1.0000   1.0000   1.0000   1.0000   1.0000   1.0000
     1.0000   1.0000   1.0000   1.0000   1.0000   1.0000   1.0000   1.0000
     1.0000   1.0000   1.0000   1.0000   1.0000   1.0000   1.0000   0.0000
     0.0000   0.0000   0.0000   0.0000   0.0000   0.0000   0.0000   0.0000

 ------ SPIN DOWN ----------


          k = 0.0000 0.0000 0.0000 (192431 PWs)   bands (ev):

   -83.0434 -47.1248 -47.1248 -47.1248 -13.4019 -11.9347 -11.9347 -11.6986
     1.2516   1.2516   1.2516   4.0667   4.0667   4.0667   4.2863   4.2863
     4.2863   5.6414   5.6414   5.6414   6.1024   6.1024   6.1024  11.4560
    11.4560  12.9486  18.5016  18.6145  18.6145  18.7935  18.7935  18.7935

     occupation numbers 
     1.0000   1.0000   1.0000   1.0000   1.0000   1.0000   1.0000   1.0000
     1.0000   1.0000   1.0000   1.0000   1.0000   1.0000   1.0000   1.0000
     1.0000   1.0000   1.0000   1.0000   1.0000   1.0000   1.0000   0.0000
     0.0000   0.0000   0.0000   0.0000   0.0000   0.0000   0.0000   0.0000

          k = 0.0000 0.0000-0.5000 (192616 PWs)   bands (ev):

   -83.0329 -47.1131 -47.1131 -47.1105 -12.7124 -12.5732 -11.9017 -11.6913
     2.1647   2.1647   2.2875   2.4894   2.4894   2.7894   3.5532   3.6420
     4.6128   4.6128   4.8161   4.8161   6.1464   7.1478   7.1478  11.4799
    12.4854  16.5027  16.9339  19.6633  20.2270  20.2270  20.8997  21.0523

     occupation numbers 
     1.0000   1.0000   1.0000   1.0000   1.0000   1.0000   1.0000   1.0000
     1.0000   1.0000   1.0000   1.0000   1.0000   1.0000   1.0000   1.0000
     1.0000   1.0000   1.0000   1.0000   1.0000   1.0000   1.0000   0.0000
     0.0000   0.0000   0.0000   0.0000   0.0000   0.0000   0.0000   0.0000

          k = 0.0000-0.5000-0.5000 (192516 PWs)   bands (ev):

   -83.0238 -47.1144 -47.0943 -47.0943 -12.2750 -12.1894 -12.1894 -12.0224
     1.3964   1.4904   1.9277   1.9277   2.9074   2.9075   3.3802   3.5654
     3.6032   4.8119   4.9188   4.9188   7.1402   7.1406   7.4098  11.8898
    14.1541  18.0338  18.0338  18.1180  18.1781  20.3422  20.4318  21.2146

     occupation numbers 
     1.0000   1.0000   1.0000   1.0000   1.0000   1.0000   1.0000   1.0000
     1.0000   1.0000   1.0000   1.0000   1.0000   1.0000   1.0000   1.0000
     1.0000   1.0000   1.0000   1.0000   1.0000   1.0000   1.0000   0.0000
     0.0000   0.0000   0.0000   0.0000   0.0000   0.0000   0.0000   0.0000

          k =-0.5000-0.5000-0.5000 (192672 PWs)   bands (ev):

   -83.0433 -47.1239 -47.1239 -47.1239 -12.1278 -12.1278 -12.1278 -11.9486
     0.4161   0.4161   0.4162   0.5658   3.3771   3.3771   4.6551   4.6551
     4.6551   4.8113   4.8113   4.8113   7.5703   7.5703   7.5705  14.1527
    14.1527  16.2902  16.2922  16.2922  16.2922  21.3166  21.7153  21.7153

     occupation numbers 
     1.0000   1.0000   1.0000   1.0000   1.0000   1.0000   1.0000   1.0000
     1.0000   1.0000   1.0000   1.0000   1.0000   1.0000   1.0000   1.0000
     1.0000   1.0000   1.0000   1.0000   1.0000   1.0000   1.0000   0.0000
     0.0000   0.0000   0.0000   0.0000   0.0000   0.0000   0.0000   0.0000

     the spin up/dw Fermi energies are     8.6593    8.6593 ev

!    total energy              =    -381.87770942 Ry
     estimated scf accuracy    <          3.7E-11 Ry
     smearing contrib. (-TS)   =       0.00000000 Ry
     internal energy E=F+TS    =    -381.87770942 Ry

     total magnetization       =    -0.00 Bohr mag/cell
     absolute magnetization    =     0.00 Bohr mag/cell

     convergence has been achieved in  11 iterations

     Using ACE for calculation of exact exchange

     total energy              =    -381.88611815 Ry
     Harris-Foulkes estimate   =    -381.88611815 Ry
     est. exchange err (dexx)  =       0.00840873 Ry
     - averaged Fock potential =      26.89845567 Ry
     + Fock energy (ACE)       =     -13.50814663 Ry

     EXX: now go back to refine exchange calculation

     total cpu time spent up to now is     1124.4 secs

     Self-consistent Calculation

     iteration #  1     ecut=   800.00 Ry     beta= 0.20
     Davidson diagonalization with overlap
     ethr =  6.08E-12,  avg # of iterations = 10.2

     total cpu time spent up to now is     1132.7 secs

     total energy              =    -381.88736095 Ry
     estimated scf accuracy    <       0.00026058 Ry

     total magnetization       =    -0.00 Bohr mag/cell
     absolute magnetization    =     0.00 Bohr mag/cell

     iteration #  2     ecut=   800.00 Ry     beta= 0.20
     Davidson diagonalization with overlap
     ethr =  5.66E-07,  avg # of iterations =  1.0

     total cpu time spent up to now is     1134.9 secs

     total energy              =    -381.88733475 Ry
     estimated scf accuracy    <       0.00010540 Ry

     total magnetization       =    -0.00 Bohr mag/cell
     absolute magnetization    =     0.00 Bohr mag/cell

     iteration #  3     ecut=   800.00 Ry     beta= 0.20
     Davidson diagonalization with overlap
     ethr =  2.29E-07,  avg # of iterations =  1.8

     total cpu time spent up to now is     1137.3 secs

     total energy              =    -381.88733874 Ry
     estimated scf accuracy    <       0.00002013 Ry

     total magnetization       =    -0.00 Bohr mag/cell
     absolute magnetization    =     0.00 Bohr mag/cell

     iteration #  4     ecut=   800.00 Ry     beta= 0.20
     Davidson diagonalization with overlap
     ethr =  4.38E-08,  avg # of iterations =  2.0

     total cpu time spent up to now is     1139.7 secs

     total energy              =    -381.88733922 Ry
     estimated scf accuracy    <       0.00000251 Ry

     total magnetization       =     0.00 Bohr mag/cell
     absolute magnetization    =     0.00 Bohr mag/cell

     iteration #  5     ecut=   800.00 Ry     beta= 0.20
     Davidson diagonalization with overlap
     ethr =  5.45E-09,  avg # of iterations =  2.0

     total cpu time spent up to now is     1142.2 secs

     total energy              =    -381.88733944 Ry
     estimated scf accuracy    <       0.00000014 Ry

     total magnetization       =    -0.00 Bohr mag/cell
     absolute magnetization    =     0.00 Bohr mag/cell

     iteration #  6     ecut=   800.00 Ry     beta= 0.20
     Davidson diagonalization with overlap
     ethr =  3.03E-10,  avg # of iterations =  2.0

     total cpu time spent up to now is     1144.7 secs

     total energy              =    -381.88733943 Ry
     estimated scf accuracy    <       0.00000006 Ry

     total magnetization       =     0.00 Bohr mag/cell
     absolute magnetization    =     0.00 Bohr mag/cell

     iteration #  7     ecut=   800.00 Ry     beta= 0.20
     Davidson diagonalization with overlap
     ethr =  1.35E-10,  avg # of iterations =  2.0

     total cpu time spent up to now is     1147.2 secs

     total energy              =    -381.88733944 Ry
     estimated scf accuracy    <          2.2E-09 Ry

     total magnetization       =    -0.00 Bohr mag/cell
     absolute magnetization    =     0.00 Bohr mag/cell

     iteration #  8     ecut=   800.00 Ry     beta= 0.20
     Davidson diagonalization with overlap
     ethr =  4.68E-12,  avg # of iterations =  4.1

     total cpu time spent up to now is     1150.3 secs

     total energy              =    -381.88733944 Ry
     estimated scf accuracy    <          2.0E-09 Ry

     total magnetization       =     0.00 Bohr mag/cell
     absolute magnetization    =     0.00 Bohr mag/cell

     iteration #  9     ecut=   800.00 Ry     beta= 0.20
     Davidson diagonalization with overlap
     ethr =  4.38E-12,  avg # of iterations =  2.0

     total cpu time spent up to now is     1152.7 secs

     total energy              =    -381.88733944 Ry
     estimated scf accuracy    <          3.9E-10 Ry

     total magnetization       =     0.00 Bohr mag/cell
     absolute magnetization    =     0.00 Bohr mag/cell

     iteration # 10     ecut=   800.00 Ry     beta= 0.20
     Davidson diagonalization with overlap
     ethr =  8.38E-13,  avg # of iterations =  2.5
 
     Magnetic moment per site:
     atom:    1    charge:   13.5229    magn:    0.0002    constr:    0.0000
     atom:    2    charge:    0.2471    magn:    0.0000    constr:    0.0000
     atom:    3    charge:    0.2471    magn:    0.0000    constr:    0.0000
     atom:    4    charge:    0.2471    magn:    0.0000    constr:    0.0000
     atom:    5    charge:    5.8695    magn:    0.0000    constr:    0.0000
     atom:    6    charge:    5.8486    magn:   -0.0000    constr:    0.0000
     atom:    7    charge:    5.8486    magn:   -0.0000    constr:    0.0000
     atom:    8    charge:    5.8486    magn:   -0.0000    constr:    0.0000

     total cpu time spent up to now is     1155.5 secs

     End of self-consistent calculation

 ------ SPIN UP ------------


          k = 0.0000 0.0000 0.0000 (192431 PWs)   bands (ev):

   -83.0754 -47.1581 -47.1579 -47.1579 -13.3936 -11.9263 -11.9263 -11.6935
     1.2567   1.2567   1.2567   4.0756   4.0756   4.0756   4.2670   4.2671
     4.2671   5.6356   5.6356   5.6356   5.9202   5.9204   5.9212  11.8696
    11.8696  12.9876  18.5023  18.6382  18.6382  18.7955  18.7956  18.7957

     occupation numbers 
     1.0000   1.0000   1.0000   1.0000   1.0000   1.0000   1.0000   1.0000
     1.0000   1.0000   1.0000   1.0000   1.0000   1.0000   1.0000   1.0000
     1.0000   1.0000   1.0000   1.0000   1.0000   1.0000   1.0000   0.0000
     0.0000   0.0000   0.0000   0.0000   0.0000   0.0000   0.0000   0.0000

          k = 0.0000 0.0000-0.5000 (192616 PWs)   bands (ev):

   -83.0564 -47.1398 -47.1396 -47.1257 -12.7026 -12.5625 -11.8911 -11.6827
     2.1666   2.1667   2.3132   2.4840   2.4841   2.8079   3.5660   3.6557
     4.5979   4.5980   4.8014   4.8014   5.9580   6.9679   6.9685  11.8852
    12.7650  16.5368  16.9803  19.6872  20.2502  20.2503  21.0621  21.1050

     occupation numbers 
     1.0000   1.0000   1.0000   1.0000   1.0000   1.0000   1.0000   1.0000
     1.0000   1.0000   1.0000   1.0000   1.0000   1.0000   1.0000   1.0000
     1.0000   1.0000   1.0000   1.0000   1.0000   1.0000   1.0000   0.0000
     0.0000   0.0000   0.0000   0.0000   0.0000   0.0000   0.0000   0.0000

          k = 0.0000-0.5000-0.5000 (192516 PWs)   bands (ev):

   -83.0392 -47.1254 -47.1079 -47.1078 -12.2640 -12.1757 -12.1757 -12.0145
     1.4003   1.4981   1.9440   1.9440   2.8978   2.8979   3.4377   3.5727
     3.5737   4.8251   4.9234   4.9235   6.9451   6.9458   7.1793  12.2253
    14.4056  18.0601  18.0602  18.1458  18.2110  20.3604  20.4549  21.2290

     occupation numbers 
     1.0000   1.0000   1.0000   1.0000   1.0000   1.0000   1.0000   1.0000
     1.0000   1.0000   1.0000   1.0000   1.0000   1.0000   1.0000   1.0000
     1.0000   1.0000   1.0000   1.0000   1.0000   1.0000   1.0000   0.0000
     0.0000   0.0000   0.0000   0.0000   0.0000   0.0000   0.0000   0.0000

          k =-0.5000-0.5000-0.5000 (192672 PWs)   bands (ev):

   -83.0226 -47.0929 -47.0927 -47.0926 -12.1103 -12.1103 -12.1102 -11.9410
     0.4340   0.4340   0.4340   0.5613   3.4366   3.4366   4.6466   4.6467
     4.6468   4.8287   4.8287   4.8287   7.3049   7.3051   7.3058  14.4109
    14.4109  16.3228  16.3248  16.3248  16.3249  21.3446  21.7428  21.7428

     occupation numbers 
     1.0000   1.0000   1.0000   1.0000   1.0000   1.0000   1.0000   1.0000
     1.0000   1.0000   1.0000   1.0000   1.0000   1.0000   1.0000   1.0000
     1.0000   1.0000   1.0000   1.0000   1.0000   1.0000   1.0000   0.0000
     0.0000   0.0000   0.0000   0.0000   0.0000   0.0000   0.0000   0.0000

 ------ SPIN DOWN ----------


          k = 0.0000 0.0000 0.0000 (192431 PWs)   bands (ev):

   -83.0750 -47.1576 -47.1575 -47.1574 -13.3936 -11.9264 -11.9264 -11.6934
     1.2566   1.2566   1.2566   4.0754   4.0755   4.0755   4.2671   4.2671
     4.2672   5.6355   5.6355   5.6356   5.9209   5.9212   5.9216  11.8698
    11.8698  12.9875  18.5022  18.6382  18.6382  18.7956  18.7956  18.7957

     occupation numbers 
     1.0000   1.0000   1.0000   1.0000   1.0000   1.0000   1.0000   1.0000
     1.0000   1.0000   1.0000   1.0000   1.0000   1.0000   1.0000   1.0000
     1.0000   1.0000   1.0000   1.0000   1.0000   1.0000   1.0000   0.0000
     0.0000   0.0000   0.0000   0.0000   0.0000   0.0000   0.0000   0.0000

          k = 0.0000 0.0000-0.5000 (192616 PWs)   bands (ev):

   -83.0560 -47.1392 -47.1392 -47.1255 -12.7027 -12.5625 -11.8912 -11.6827
     2.1666   2.1666   2.3132   2.4839   2.4839   2.8078   3.5661   3.6556
     4.5979   4.5980   4.8013   4.8013   5.9591   6.9683   6.9686  11.8853
    12.7650  16.5367  16.9803  19.6871  20.2500  20.2500  20.9232  21.0622

     occupation numbers 
     1.0000   1.0000   1.0000   1.0000   1.0000   1.0000   1.0000   1.0000
     1.0000   1.0000   1.0000   1.0000   1.0000   1.0000   1.0000   1.0000
     1.0000   1.0000   1.0000   1.0000   1.0000   1.0000   1.0000   0.0000
     0.0000   0.0000   0.0000   0.0000   0.0000   0.0000   0.0000   0.0000

          k = 0.0000-0.5000-0.5000 (192516 PWs)   bands (ev):

   -83.0387 -47.1250 -47.1074 -47.1073 -12.2641 -12.1758 -12.1758 -12.0144
     1.4002   1.4980   1.9440   1.9440   2.8978   2.8978   3.4377   3.5727
     3.5738   4.8249   4.9235   4.9236   6.9458   6.9461   7.1802  12.2254
    14.4058  18.0600  18.0600  18.1457  18.2109  20.3602  20.4548  21.2289

     occupation numbers 
     1.0000   1.0000   1.0000   1.0000   1.0000   1.0000   1.0000   1.0000
     1.0000   1.0000   1.0000   1.0000   1.0000   1.0000   1.0000   1.0000
     1.0000   1.0000   1.0000   1.0000   1.0000   1.0000   1.0000   0.0000
     0.0000   0.0000   0.0000   0.0000   0.0000   0.0000   0.0000   0.0000

          k =-0.5000-0.5000-0.5000 (192672 PWs)   bands (ev):

   -83.0222 -47.0924 -47.0923 -47.0922 -12.1104 -12.1103 -12.1103 -11.9408
     0.4340   0.4340   0.4340   0.5612   3.4366   3.4366   4.6468   4.6469
     4.6469   4.8285   4.8285   4.8286   7.3055   7.3059   7.3062  14.4111
    14.4111  16.3227  16.3246  16.3247  16.3247  21.3445  21.7427  21.7427

     occupation numbers 
     1.0000   1.0000   1.0000   1.0000   1.0000   1.0000   1.0000   1.0000
     1.0000   1.0000   1.0000   1.0000   1.0000   1.0000   1.0000   1.0000
     1.0000   1.0000   1.0000   1.0000   1.0000   1.0000   1.0000   0.0000
     0.0000   0.0000   0.0000   0.0000   0.0000   0.0000   0.0000   0.0000

     the spin up/dw Fermi energies are     8.6793    8.6793 ev

!    total energy              =    -381.88733944 Ry
     estimated scf accuracy    <          5.9E-11 Ry
     smearing contrib. (-TS)   =       0.00000000 Ry
     internal energy E=F+TS    =    -381.88733944 Ry

     total magnetization       =    -0.00 Bohr mag/cell
     absolute magnetization    =     0.00 Bohr mag/cell

     convergence has been achieved in  10 iterations

     Using ACE for calculation of exact exchange

     total energy              =    -381.88759151 Ry
     Harris-Foulkes estimate   =    -381.88759151 Ry
     est. exchange err (dexx)  =       0.00025207 Ry
     - averaged Fock potential =      27.03060467 Ry
     + Fock energy (ACE)       =     -13.52271012 Ry

     EXX: now go back to refine exchange calculation

     total cpu time spent up to now is     1658.7 secs

     Self-consistent Calculation

     iteration #  1     ecut=   800.00 Ry     beta= 0.20
     Davidson diagonalization with overlap
     ethr =  8.38E-13,  avg # of iterations =  9.6

     total cpu time spent up to now is     1665.6 secs

     total energy              =    -381.88764712 Ry
     estimated scf accuracy    <       0.00001201 Ry

     total magnetization       =     0.00 Bohr mag/cell
     absolute magnetization    =     0.00 Bohr mag/cell

     iteration #  2     ecut=   800.00 Ry     beta= 0.20
     Davidson diagonalization with overlap
     ethr =  2.61E-08,  avg # of iterations =  1.0

     total cpu time spent up to now is     1667.8 secs

     total energy              =    -381.88764535 Ry
     estimated scf accuracy    <       0.00000532 Ry

     total magnetization       =     0.00 Bohr mag/cell
     absolute magnetization    =     0.00 Bohr mag/cell

     iteration #  3     ecut=   800.00 Ry     beta= 0.20
     Davidson diagonalization with overlap
     ethr =  1.16E-08,  avg # of iterations =  2.0

     total cpu time spent up to now is     1670.3 secs

     total energy              =    -381.88764568 Ry
     estimated scf accuracy    <       0.00000074 Ry

     total magnetization       =     0.00 Bohr mag/cell
     absolute magnetization    =     0.00 Bohr mag/cell

     iteration #  4     ecut=   800.00 Ry     beta= 0.20
     Davidson diagonalization with overlap
     ethr =  1.61E-09,  avg # of iterations =  1.9

     total cpu time spent up to now is     1672.7 secs

     total energy              =    -381.88764572 Ry
     estimated scf accuracy    <       0.00000005 Ry

     total magnetization       =    -0.00 Bohr mag/cell
     absolute magnetization    =     0.00 Bohr mag/cell

     iteration #  5     ecut=   800.00 Ry     beta= 0.20
     Davidson diagonalization with overlap
     ethr =  9.80E-11,  avg # of iterations =  3.2

     total cpu time spent up to now is     1675.3 secs

     total energy              =    -381.88764572 Ry
     estimated scf accuracy    <          9.3E-09 Ry

     total magnetization       =     0.00 Bohr mag/cell
     absolute magnetization    =     0.00 Bohr mag/cell

     iteration #  6     ecut=   800.00 Ry     beta= 0.20
     Davidson diagonalization with overlap
     ethr =  2.02E-11,  avg # of iterations =  2.0

     total cpu time spent up to now is     1677.9 secs

     total energy              =    -381.88764572 Ry
     estimated scf accuracy    <          2.3E-09 Ry

     total magnetization       =     0.00 Bohr mag/cell
     absolute magnetization    =     0.00 Bohr mag/cell

     iteration #  7     ecut=   800.00 Ry     beta= 0.20
     Davidson diagonalization with overlap
     ethr =  4.95E-12,  avg # of iterations =  2.0

     total cpu time spent up to now is     1680.4 secs

     total energy              =    -381.88764572 Ry
     estimated scf accuracy    <          2.8E-10 Ry

     total magnetization       =    -0.00 Bohr mag/cell
     absolute magnetization    =     0.00 Bohr mag/cell

     iteration #  8     ecut=   800.00 Ry     beta= 0.20
     Davidson diagonalization with overlap
     ethr =  6.03E-13,  avg # of iterations =  2.5
 
     Magnetic moment per site:
     atom:    1    charge:   13.5221    magn:    0.0001    constr:    0.0000
     atom:    2    charge:    0.2471    magn:    0.0000    constr:    0.0000
     atom:    3    charge:    0.2471    magn:    0.0000    constr:    0.0000
     atom:    4    charge:    0.2471    magn:    0.0000    constr:    0.0000
     atom:    5    charge:    5.8699    magn:    0.0000    constr:    0.0000
     atom:    6    charge:    5.8496    magn:   -0.0000    constr:    0.0000
     atom:    7    charge:    5.8496    magn:   -0.0000    constr:    0.0000
     atom:    8    charge:    5.8496    magn:   -0.0000    constr:    0.0000

     total cpu time spent up to now is     1683.0 secs

     End of self-consistent calculation

 ------ SPIN UP ------------


          k = 0.0000 0.0000 0.0000 (192431 PWs)   bands (ev):

   -83.0734 -47.1553 -47.1552 -47.1552 -13.3921 -11.9248 -11.9248 -11.6908
     1.2568   1.2568   1.2568   4.0799   4.0799   4.0799   4.2599   4.2599
     4.2599   5.6347   5.6347   5.6347   5.9043   5.9044   5.9048  11.9150
    11.9150  12.9926  18.5014  18.6412  18.6412  18.7955  18.7955  18.7956

     occupation numbers 
     1.0000   1.0000   1.0000   1.0000   1.0000   1.0000   1.0000   1.0000
     1.0000   1.0000   1.0000   1.0000   1.0000   1.0000   1.0000   1.0000
     1.0000   1.0000   1.0000   1.0000   1.0000   1.0000   1.0000   0.0000
     0.0000   0.0000   0.0000   0.0000   0.0000   0.0000   0.0000   0.0000

          k = 0.0000 0.0000-0.5000 (192616 PWs)   bands (ev):

   -83.0557 -47.1381 -47.1380 -47.1258 -12.7013 -12.5600 -11.8893 -11.6801
     2.1694   2.1694   2.3121   2.4805   2.4805   2.8125   3.5681   3.6602
     4.5982   4.5982   4.7954   4.7954   5.9410   6.9518   6.9521  11.9300
    12.7956  16.5430  16.9838  19.6910  20.2537  20.2538  21.0617  21.1067

     occupation numbers 
     1.0000   1.0000   1.0000   1.0000   1.0000   1.0000   1.0000   1.0000
     1.0000   1.0000   1.0000   1.0000   1.0000   1.0000   1.0000   1.0000
     1.0000   1.0000   1.0000   1.0000   1.0000   1.0000   1.0000   0.0000
     0.0000   0.0000   0.0000   0.0000   0.0000   0.0000   0.0000   0.0000

          k = 0.0000-0.5000-0.5000 (192516 PWs)   bands (ev):

   -83.0398 -47.1250 -47.1091 -47.1090 -12.2624 -12.1735 -12.1735 -12.0112
     1.4029   1.4931   1.9479   1.9479   2.8996   2.8996   3.4411   3.5595
     3.5763   4.8301   4.9268   4.9268   6.9275   6.9278   7.1588  12.2641
    14.4267  18.0650  18.0650  18.1508  18.2135  20.3617  20.4586  21.2320

     occupation numbers 
     1.0000   1.0000   1.0000   1.0000   1.0000   1.0000   1.0000   1.0000
     1.0000   1.0000   1.0000   1.0000   1.0000   1.0000   1.0000   1.0000
     1.0000   1.0000   1.0000   1.0000   1.0000   1.0000   1.0000   0.0000
     0.0000   0.0000   0.0000   0.0000   0.0000   0.0000   0.0000   0.0000

          k =-0.5000-0.5000-0.5000 (192672 PWs)   bands (ev):

   -83.0250 -47.0956 -47.0955 -47.0955 -12.1078 -12.1078 -12.1078 -11.9378
     0.4373   0.4373   0.4373   0.5544   3.4401   3.4401   4.6460   4.6460
     4.6460   4.8336   4.8337   4.8337   7.2858   7.2859   7.2863  14.4316
    14.4316  16.3276  16.3298  16.3298  16.3299  21.3451  21.7477  21.7477

     occupation numbers 
     1.0000   1.0000   1.0000   1.0000   1.0000   1.0000   1.0000   1.0000
     1.0000   1.0000   1.0000   1.0000   1.0000   1.0000   1.0000   1.0000
     1.0000   1.0000   1.0000   1.0000   1.0000   1.0000   1.0000   0.0000
     0.0000   0.0000   0.0000   0.0000   0.0000   0.0000   0.0000   0.0000

 ------ SPIN DOWN ----------


[...]

          k =-0.5000-0.5000-0.5000 (192672 PWs)   bands (ev):

   -83.0256 -47.0962 -47.0962 -47.0962 -12.1073 -12.1073 -12.1073 -11.9366
     0.4382   0.4382   0.4382   0.5519   3.4401   3.4401   4.6462   4.6462
     4.6462   4.8357   4.8357   4.8357   7.2810   7.2810   7.2810  14.4361
    14.4361  16.3284  16.3308  16.3308  16.3308  21.3439  21.7491  21.7491

     occupation numbers 
     1.0000   1.0000   1.0000   1.0000   1.0000   1.0000   1.0000   1.0000
     1.0000   1.0000   1.0000   1.0000   1.0000   1.0000   1.0000   1.0000
     1.0000   1.0000   1.0000   1.0000   1.0000   1.0000   1.0000   0.0000
     0.0000   0.0000   0.0000   0.0000   0.0000   0.0000   0.0000   0.0000

     the spin up/dw Fermi energies are     8.6851    8.6851 ev

!    total energy              =    -381.88766108 Ry
     estimated scf accuracy    <          4.3E-11 Ry
     smearing contrib. (-TS)   =       0.00000000 Ry
     internal energy E=F+TS    =    -381.88766108 Ry

     total magnetization       =     0.00 Bohr mag/cell
     absolute magnetization    =     0.00 Bohr mag/cell

     convergence has been achieved in   1 iterations

     Using ACE for calculation of exact exchange
     BEWARE: negative dexx:  -0.145E-09

     total energy              =    -381.88766108 Ry
     Harris-Foulkes estimate   =    -381.88766108 Ry
     est. exchange err (dexx)  =          1.5E-10 Ry
     - averaged Fock potential =      27.05268367 Ry
     + Fock energy (ACE)       =     -13.52633941 Ry

     EXX: now go back to refine exchange calculation

     total cpu time spent up to now is     4756.3 secs

     Self-consistent Calculation

     iteration #  1     ecut=   800.00 Ry     beta= 0.20
     Davidson diagonalization with overlap
     ethr =  3.94E-13,  avg # of iterations =  2.6
 
     Magnetic moment per site:
     atom:    1    charge:   13.5219    magn:    0.0000    constr:    0.0000
     atom:    2    charge:    0.2471    magn:    0.0000    constr:    0.0000
     atom:    3    charge:    0.2471    magn:    0.0000    constr:    0.0000
     atom:    4    charge:    0.2471    magn:    0.0000    constr:    0.0000
     atom:    5    charge:    5.8699    magn:    0.0000    constr:    0.0000
     atom:    6    charge:    5.8499    magn:   -0.0000    constr:    0.0000
     atom:    7    charge:    5.8499    magn:   -0.0000    constr:    0.0000
     atom:    8    charge:    5.8499    magn:   -0.0000    constr:    0.0000

     total cpu time spent up to now is     4759.2 secs

     End of self-consistent calculation

 ------ SPIN UP ------------


          k = 0.0000 0.0000 0.0000 (192431 PWs)   bands (ev):

   -83.0731 -47.1548 -47.1548 -47.1548 -13.3917 -11.9245 -11.9245 -11.6899
     1.2568   1.2568   1.2568   4.0815   4.0815   4.0815   4.2575   4.2575
     4.2575   5.6346   5.6346   5.6346   5.8998   5.8998   5.8998  11.9264
    11.9264  12.9934  18.5011  18.6416  18.6416  18.7952  18.7952  18.7952

     occupation numbers 
     1.0000   1.0000   1.0000   1.0000   1.0000   1.0000   1.0000   1.0000
     1.0000   1.0000   1.0000   1.0000   1.0000   1.0000   1.0000   1.0000
     1.0000   1.0000   1.0000   1.0000   1.0000   1.0000   1.0000   0.0000
     0.0000   0.0000   0.0000   0.0000   0.0000   0.0000   0.0000   0.0000

          k = 0.0000 0.0000-0.5000 (192616 PWs)   bands (ev):

   -83.0557 -47.1379 -47.1379 -47.1260 -12.7011 -12.5593 -11.8890 -11.6792
     2.1703   2.1703   2.3111   2.4793   2.4793   2.8139   3.5687   3.6618
     4.5986   4.5986   4.7934   4.7934   5.9364   6.9476   6.9476  11.9413
    12.8032  16.5445  16.9840  19.6917  20.2543  20.2543  21.0610  21.1038

     occupation numbers 
     1.0000   1.0000   1.0000   1.0000   1.0000   1.0000   1.0000   1.0000
     1.0000   1.0000   1.0000   1.0000   1.0000   1.0000   1.0000   1.0000
     1.0000   1.0000   1.0000   1.0000   1.0000   1.0000   1.0000   0.0000
     0.0000   0.0000   0.0000   0.0000   0.0000   0.0000   0.0000   0.0000

          k = 0.0000-0.5000-0.5000 (192516 PWs)   bands (ev):

   -83.0401 -47.1251 -47.1095 -47.1095 -12.2621 -12.1731 -12.1731 -12.0101
     1.4036   1.4910   1.9490   1.9490   2.9002   2.9002   3.4411   3.5551
     3.5772   4.8320   4.9282   4.9282   6.9227   6.9227   7.1533  12.2739
    14.4312  18.0662  18.0662  18.1521  18.2132  20.3614  20.4594  21.2328

     occupation numbers 
     1.0000   1.0000   1.0000   1.0000   1.0000   1.0000   1.0000   1.0000
     1.0000   1.0000   1.0000   1.0000   1.0000   1.0000   1.0000   1.0000
     1.0000   1.0000   1.0000   1.0000   1.0000   1.0000   1.0000   0.0000
     0.0000   0.0000   0.0000   0.0000   0.0000   0.0000   0.0000   0.0000

          k =-0.5000-0.5000-0.5000 (192672 PWs)   bands (ev):

   -83.0257 -47.0963 -47.0963 -47.0963 -12.1073 -12.1073 -12.1073 -11.9366
     0.4382   0.4382   0.4382   0.5519   3.4401   3.4401   4.6462   4.6462
     4.6462   4.8357   4.8357   4.8357   7.2809   7.2809   7.2809  14.4360
    14.4360  16.3284  16.3308  16.3308  16.3308  21.3439  21.7491  21.7491

     occupation numbers 
     1.0000   1.0000   1.0000   1.0000   1.0000   1.0000   1.0000   1.0000
     1.0000   1.0000   1.0000   1.0000   1.0000   1.0000   1.0000   1.0000
     1.0000   1.0000   1.0000   1.0000   1.0000   1.0000   1.0000   0.0000
     0.0000   0.0000   0.0000   0.0000   0.0000   0.0000   0.0000   0.0000

 ------ SPIN DOWN ----------


          k = 0.0000 0.0000 0.0000 (192431 PWs)   bands (ev):

   -83.0731 -47.1548 -47.1548 -47.1548 -13.3917 -11.9245 -11.9245 -11.6899
     1.2568   1.2568   1.2568   4.0815   4.0815   4.0815   4.2575   4.2575
     4.2575   5.6346   5.6346   5.6346   5.8998   5.8998   5.8998  11.9264
    11.9264  12.9934  18.5011  18.6416  18.6416  18.7952  18.7952  18.7952

     occupation numbers 
     1.0000   1.0000   1.0000   1.0000   1.0000   1.0000   1.0000   1.0000
     1.0000   1.0000   1.0000   1.0000   1.0000   1.0000   1.0000   1.0000
     1.0000   1.0000   1.0000   1.0000   1.0000   1.0000   1.0000   0.0000
     0.0000   0.0000   0.0000   0.0000   0.0000   0.0000   0.0000   0.0000

          k = 0.0000 0.0000-0.5000 (192616 PWs)   bands (ev):

   -83.0557 -47.1379 -47.1379 -47.1260 -12.7011 -12.5593 -11.8890 -11.6792
     2.1703   2.1703   2.3111   2.4793   2.4793   2.8139   3.5687   3.6618
     4.5986   4.5986   4.7934   4.7934   5.9364   6.9476   6.9476  11.9413
    12.8032  16.5445  16.9840  19.6917  20.2543  20.2543  20.9283  21.0611

     occupation numbers 
     1.0000   1.0000   1.0000   1.0000   1.0000   1.0000   1.0000   1.0000
     1.0000   1.0000   1.0000   1.0000   1.0000   1.0000   1.0000   1.0000
     1.0000   1.0000   1.0000   1.0000   1.0000   1.0000   1.0000   0.0000
     0.0000   0.0000   0.0000   0.0000   0.0000   0.0000   0.0000   0.0000

          k = 0.0000-0.5000-0.5000 (192516 PWs)   bands (ev):

   -83.0401 -47.1251 -47.1095 -47.1095 -12.2621 -12.1731 -12.1731 -12.0101
     1.4036   1.4910   1.9490   1.9490   2.9002   2.9002   3.4411   3.5551
     3.5772   4.8320   4.9282   4.9282   6.9227   6.9227   7.1533  12.2739
    14.4312  18.0662  18.0662  18.1521  18.2132  20.3614  20.4594  21.2328

     occupation numbers 
     1.0000   1.0000   1.0000   1.0000   1.0000   1.0000   1.0000   1.0000
     1.0000   1.0000   1.0000   1.0000   1.0000   1.0000   1.0000   1.0000
     1.0000   1.0000   1.0000   1.0000   1.0000   1.0000   1.0000   0.0000
     0.0000   0.0000   0.0000   0.0000   0.0000   0.0000   0.0000   0.0000

          k =-0.5000-0.5000-0.5000 (192672 PWs)   bands (ev):

   -83.0257 -47.0963 -47.0963 -47.0963 -12.1073 -12.1073 -12.1073 -11.9366
     0.4382   0.4382   0.4382   0.5519   3.4401   3.4401   4.6462   4.6462
     4.6462   4.8356   4.8356   4.8356   7.2809   7.2809   7.2809  14.4360
    14.4360  16.3284  16.3308  16.3308  16.3308  21.3439  21.7491  21.7491

     occupation numbers 
     1.0000   1.0000   1.0000   1.0000   1.0000   1.0000   1.0000   1.0000
     1.0000   1.0000   1.0000   1.0000   1.0000   1.0000   1.0000   1.0000
     1.0000   1.0000   1.0000   1.0000   1.0000   1.0000   1.0000   0.0000
     0.0000   0.0000   0.0000   0.0000   0.0000   0.0000   0.0000   0.0000

     the spin up/dw Fermi energies are     8.6851    8.6851 ev

!    total energy              =    -381.88766108 Ry
     estimated scf accuracy    <          6.9E-11 Ry
     smearing contrib. (-TS)   =       0.00000000 Ry
     internal energy E=F+TS    =    -381.88766108 Ry

     total magnetization       =    -0.00 Bohr mag/cell
     absolute magnetization    =     0.00 Bohr mag/cell

     convergence has been achieved in   1 iterations

     Using ACE for calculation of exact exchange

!!   total energy              =    -381.88766108 Ry
     Harris-Foulkes estimate   =    -381.88766108 Ry
     est. exchange err (dexx)  =          8.1E-11 Ry
     - averaged Fock potential =      27.05268605 Ry
     + Fock energy (ACE)       =     -13.52634663 Ry

     EXX self-consistency reached

     Forces acting on atoms (cartesian axes, Ry/au):

     atom    1 type  1   force =     0.00000000    0.00000000    0.00000000
     atom    2 type  2   force =     0.00000000    0.00000000   -0.00000000
     atom    3 type  2   force =     0.00000000    0.00000000   -0.00000000
     atom    4 type  2   force =     0.00000000    0.00000000    0.00000000
     atom    5 type  3   force =     0.00000000    0.00000000    0.00000000
     atom    6 type  3   force =     0.00000000    0.00000000    0.00000000
     atom    7 type  3   force =     0.00000000    0.00000000    0.00000000
     atom    8 type  3   force =     0.00000000    0.00000000    0.00000000
     The non-local contrib.  to forces
     atom    1 type  1   force =     0.00000000    0.00000000   -0.00000000
     atom    2 type  2   force =     0.00000000    0.00000000    0.00000000
     atom    3 type  2   force =     0.00000000    0.00000000    0.00000000
     atom    4 type  2   force =     0.00000000   -0.00000000    0.00000000
     atom    5 type  3   force =     0.00000000    0.00000000    0.00000000
     atom    6 type  3   force =     0.00000000    0.00000000   -0.00000000
     atom    7 type  3   force =     0.00000000    0.00000000    0.00000000
     atom    8 type  3   force =     0.00000000    0.00000000    0.00000000
     The ionic contribution  to forces
     atom    1 type  1   force =    -0.00000000   -0.00000000   -0.00000000
     atom    2 type  2   force =    -0.00000000    0.00000000    0.00000000
     atom    3 type  2   force =     0.00000000   -0.00000000    0.00000000
     atom    4 type  2   force =     0.00000000    0.00000000   -0.00000000
     atom    5 type  3   force =     0.00000000    0.00000000    0.00000000
     atom    6 type  3   force =     0.00000000   -0.00000000   -0.00000000
     atom    7 type  3   force =    -0.00000000    0.00000000   -0.00000000
     atom    8 type  3   force =    -0.00000000   -0.00000000    0.00000000
     The local contribution  to forces
     atom    1 type  1   force =     0.00000000    0.00000000    0.00000000
     atom    2 type  2   force =    -0.00000000    0.00000000    0.00000000
     atom    3 type  2   force =     0.00000000   -0.00000000    0.00000000
     atom    4 type  2   force =     0.00000000    0.00000000   -0.00000000
     atom    5 type  3   force =     0.00000000    0.00000000    0.00000000
     atom    6 type  3   force =     0.00000000    0.00000000    0.00000000
     atom    7 type  3   force =     0.00000000    0.00000000    0.00000000
     atom    8 type  3   force =     0.00000000    0.00000000    0.00000000
     The core correction contribution to forces
     atom    1 type  1   force =     0.00000000    0.00000000    0.00000000
     atom    2 type  2   force =     0.00000000    0.00000000    0.00000000
     atom    3 type  2   force =     0.00000000    0.00000000    0.00000000
     atom    4 type  2   force =     0.00000000    0.00000000    0.00000000
     atom    5 type  3   force =     0.00000000    0.00000000    0.00000000
     atom    6 type  3   force =     0.00000000    0.00000000    0.00000000
     atom    7 type  3   force =     0.00000000    0.00000000    0.00000000
     atom    8 type  3   force =     0.00000000    0.00000000    0.00000000
     The Hubbard contrib.    to forces
     atom    1 type  1   force =     0.00000000    0.00000000    0.00000000
     atom    2 type  2   force =     0.00000000    0.00000000    0.00000000
     atom    3 type  2   force =     0.00000000    0.00000000    0.00000000
     atom    4 type  2   force =     0.00000000    0.00000000    0.00000000
     atom    5 type  3   force =     0.00000000    0.00000000    0.00000000
     atom    6 type  3   force =     0.00000000    0.00000000    0.00000000
     atom    7 type  3   force =     0.00000000    0.00000000    0.00000000
     atom    8 type  3   force =     0.00000000    0.00000000    0.00000000
     The SCF correction term to forces
     atom    1 type  1   force =     0.00000000   -0.00000000    0.00000000
     atom    2 type  2   force =     0.00000000   -0.00000000    0.00000000
     atom    3 type  2   force =    -0.00000000   -0.00000000    0.00000000
     atom    4 type  2   force =    -0.00000000   -0.00000000   -0.00000000
     atom    5 type  3   force =     0.00000000    0.00000000   -0.00000000
     atom    6 type  3   force =    -0.00000000   -0.00000000   -0.00000000
     atom    7 type  3   force =    -0.00000000   -0.00000000    0.00000000
     atom    8 type  3   force =    -0.00000000    0.00000000    0.00000000

     Total force =     0.000000     Total SCF correction =     0.000000


     Computing stress (Cartesian axis) and pressure

          total   stress  (Ry/bohr**3)                   (kbar)     P=      -79.11
  -0.00053778   0.00000000   0.00000000          -79.11        0.00        0.00
   0.00000000  -0.00053778   0.00000000            0.00      -79.11        0.00
   0.00000000   0.00000000  -0.00053778            0.00        0.00      -79.11

     kinetic stress (kbar)  48074.28      0.00      0.00
                                0.00  48074.28      0.00
                                0.00      0.00  48074.28

     local   stress (kbar) -16896.49      0.00     -0.00
                                0.00 -16896.49     -0.00
                               -0.00     -0.00 -16896.49

     nonloc. stress (kbar) -17668.45      0.00      0.00
                                0.00 -17668.45      0.00
                                0.00      0.00 -17668.45

     hartree stress (kbar)  14309.20     -0.00      0.00
                               -0.00  14309.20     -0.00
                                0.00     -0.00  14309.20

     exc-cor stress (kbar)  -4066.92     -0.00      0.00
                               -0.00  -4066.92     -0.00
                                0.00     -0.00  -4066.92

     corecor stress (kbar)      0.00      0.00      0.00
                                0.00      0.00      0.00
                                0.00      0.00      0.00

     ewald   stress (kbar) -22428.97      0.00     -0.00
                                0.00 -22428.97      0.00
                               -0.00      0.00 -22428.97

     hubbard stress (kbar)      0.00      0.00      0.00
                                0.00      0.00      0.00
                                0.00      0.00      0.00

     DFT-D   stress (kbar)      0.00      0.00      0.00
                                0.00      0.00      0.00
                                0.00      0.00      0.00

     XDM     stress (kbar)      0.00      0.00      0.00
                                0.00      0.00      0.00
                                0.00      0.00      0.00

     dft-nl  stress (kbar)      0.00      0.00      0.00
                                0.00      0.00      0.00
                                0.00      0.00      0.00

     TS-vdW  stress (kbar)      0.00      0.00      0.00
                                0.00      0.00      0.00
                                0.00      0.00      0.00


     EXX     stress (kbar)  -1401.76      0.00      0.00
                                0.00  -1401.76      0.00
                                0.00      0.00  -1401.76



     Writing output data file pwscf_output/pwscf.save/
 
     init_run     :      1.98s CPU      2.55s WALL (       1 calls)
     electrons    :    222.89s CPU    234.76s WALL (      10 calls)
     forces       :      0.15s CPU      0.16s WALL (       1 calls)
     stress       :    222.32s CPU    239.05s WALL (       1 calls)

     Called by init_run:
     wfcinit      :      1.23s CPU      1.41s WALL (       1 calls)
     wfcinit:atom :      0.03s CPU      0.03s WALL (       8 calls)
     wfcinit:wfcr :      1.14s CPU      1.29s WALL (       8 calls)
     potinit      :      0.14s CPU      0.44s WALL (       1 calls)
     hinit0       :      0.09s CPU      0.14s WALL (       1 calls)

     Called by electrons:
     c_bands      :    182.94s CPU    184.50s WALL (      77 calls)
     sum_band     :     28.37s CPU     28.74s WALL (      77 calls)
     v_of_rho     :      8.21s CPU      8.73s WALL (      79 calls)
     v_h          :      0.33s CPU      0.36s WALL (      79 calls)
     v_xc         :      7.87s CPU      8.37s WALL (      79 calls)
     mix_rho      :      2.73s CPU      2.84s WALL (      77 calls)

     Called by c_bands:
     init_us_2    :      1.36s CPU      1.39s WALL (    1256 calls)
     cegterg      :    179.32s CPU    180.78s WALL (     616 calls)

     Called by sum_band:
     sum_band:wei :      0.00s CPU      0.00s WALL (      77 calls)
     sum_band:loo :     26.88s CPU     27.11s WALL (      77 calls)
     sum_band:buf :      0.90s CPU      0.92s WALL (     616 calls)
     sum_band:ini :      0.67s CPU      0.68s WALL (     616 calls)

     Called by *egterg:
     cdiaghg      :      9.78s CPU      9.96s WALL (    2422 calls)
     cegterg:over :     14.07s CPU     14.15s WALL (    1878 calls)
     cegterg:upda :      9.92s CPU      9.97s WALL (    1878 calls)
     cegterg:last :     11.78s CPU     11.82s WALL (    1452 calls)
     cdiaghg:chol :      0.66s CPU      0.71s WALL (    2422 calls)
     cdiaghg:inve :      0.12s CPU      0.13s WALL (    2422 calls)
     cdiaghg:para :      0.65s CPU      0.66s WALL (    4844 calls)
     h_psi        :    130.19s CPU    131.42s WALL (    2502 calls)
     g_psi        :      0.60s CPU      0.60s WALL (    1878 calls)

     Called by h_psi:
     h_psi:calbec :      3.26s CPU      3.30s WALL (    2502 calls)
     vloc_psi     :    114.72s CPU    115.75s WALL (    2502 calls)
     add_vuspsi   :      3.96s CPU      4.01s WALL (    2502 calls)

     General routines
     calbec       :      6.15s CPU      6.28s WALL (    4433 calls)
     fft          :      3.52s CPU      4.05s WALL (    1488 calls)
     ffts         :      0.32s CPU      0.37s WALL (     154 calls)
     fftw         :    118.09s CPU    119.15s WALL (  125982 calls)
     fftc         :   3237.30s CPU   3672.01s WALL ( 1357824 calls)
     fftcw        :     11.47s CPU     12.02s WALL (    9728 calls)
 
     Parallel routines
     fft_scatt_xy :    375.85s CPU    381.43s WALL ( 1495176 calls)
     fft_scatt_yz :   1754.91s CPU   2166.11s WALL ( 1495176 calls)

     EXX routines
     exx_grid     :      0.00s CPU      0.00s WALL (       1 calls)
     exxinit      :    174.73s CPU    244.45s WALL (      10 calls)
     vexx         :   4343.41s CPU   4776.42s WALL (      80 calls)
     matcalc      :      2.86s CPU      2.94s WALL (    1891 calls)
     aceupdate    :      0.12s CPU      0.17s WALL (      80 calls)
     vexxace      :      7.33s CPU      7.42s WALL (    1659 calls)
     aceinit      :   4343.88s CPU   4776.99s WALL (      80 calls)
 
     PWSCF        :      1h22m CPU      1h32m WALL

 
   This run was terminated on:  16:56: 0  27Nov2021            

=------------------------------------------------------------------------------=
   JOB DONE.
=------------------------------------------------------------------------------=
