
     Program PWSCF v.6.7MaX starts on 22Nov2021 at 11:21: 0 

     This program is part of the open-source Quantum ESPRESSO suite
     for quantum simulation of materials; please cite
         "P. Giannozzi et al., J. Phys.:Condens. Matter 21 395502 (2009);
         "P. Giannozzi et al., J. Phys.:Condens. Matter 29 465901 (2017);
          URL http://www.quantum-espresso.org", 
     in publications or presentations arising from this work. More details at
     http://www.quantum-espresso.org/quote

     Parallel version (MPI), running on    48 processors

     MPI processes distributed on     1 nodes
     R & G space division:  proc/nbgrp/npool/nimage =      48
     Reading input from scf.in

     Current dimensions of program PWSCF are:
     Max number of different atomic species (ntypx) = 10
     Max number of k-points (npk) =  40000
     Max angular momentum in pseudopotentials (lmaxx) =  3
     Message from routine scan_end:
     No INFO block end statement, possibly corrupted file
     Message from routine scan_end:
     No INFO block end statement, possibly corrupted file
     Message from routine scan_end:
     No INFO block end statement, possibly corrupted file

     IMPORTANT: XC functional enforced from input :
     Exchange-correlation= PBE
                           (   1   4   3   4   0   0   0)
     Any further DFT definition will be discarded
     Please, verify this is what you really want


     Subspace diagonalization in iterative solution of the eigenvalue problem:
     one sub-group per band group will be used
     scalapack distributed-memory algorithm (size of sub-group:  6*  6 procs)

 
     Parallelization info
     --------------------
     sticks:   dense  smooth     PW     G-vecs:    dense   smooth      PW
     Min         336     336     87                32092    32092    4297
     Max         337     337     88                32097    32097    4304
     Sum       16141   16141   4221              1540499  1540499  206437
 


     bravais-lattice index     =            1
     lattice parameter (alat)  =       7.9576  a.u.
     unit-cell volume          =     503.9013 (a.u.)^3
     number of atoms/cell      =            8
     number of atomic types    =            3
     number of electrons       =        46.00 (up:  25.00, down:  21.00)
     number of Kohn-Sham states=           32
     kinetic-energy cutoff     =     800.0000  Ry
     charge density cutoff     =    3200.0000  Ry
     scf convergence threshold =      1.0E-10
     mixing beta               =       0.3000
     number of iterations used =            8  plain     mixing
     Exchange-correlation= PBE
                           (   1   4   3   4   0   0   0)

     celldm(1)=   7.957595  celldm(2)=   0.000000  celldm(3)=   0.000000
     celldm(4)=   0.000000  celldm(5)=   0.000000  celldm(6)=   0.000000

     crystal axes: (cart. coord. in units of alat)
               a(1) = (   1.000000   0.000000   0.000000 )  
               a(2) = (   0.000000   1.000000   0.000000 )  
               a(3) = (   0.000000   0.000000   1.000000 )  

     reciprocal axes: (cart. coord. in units 2 pi/alat)
               b(1) = (  1.000000  0.000000  0.000000 )  
               b(2) = (  0.000000  1.000000  0.000000 )  
               b(3) = (  0.000000  0.000000  1.000000 )  


     PseudoPot. # 1 for Fe read from file:
     /ascldap/users/jptowns/ferropericlase_spintransition/pseudos/Fe.ccECP.upf
     MD5 check sum: 375ee7e2ce333dc2f1485c86089d969e
     Pseudo is Norm-conserving, Zval = 16.0
     Generated by new atomic code, or converted to UPF format
     Using radial grid of 1160 points,  2 beta functions with: 
                l(1) =   1
                l(2) =   2

     PseudoPot. # 2 for Mg read from file:
     /ascldap/users/jptowns/ferropericlase_spintransition/pseudos/Mg.ccECP.upf
     MD5 check sum: 94218cb30fa6b3f6810c07405bb1118c
     Pseudo is Norm-conserving, Zval =  2.0
     Generated by new atomic code, or converted to UPF format
     Using radial grid of 1140 points,  2 beta functions with: 
                l(1) =   0
                l(2) =   2

     PseudoPot. # 3 for O  read from file:
     /ascldap/users/jptowns/ferropericlase_spintransition/pseudos/O.ccECP.upf
     MD5 check sum: f8511452b848d8673c004e477b4fc277
     Pseudo is Norm-conserving, Zval =  6.0
     Generated by new atomic code, or converted to UPF format
     Using radial grid of 1130 points,  1 beta functions with: 
                l(1) =   0

     atomic species   valence    mass     pseudopotential
        Fe            16.00    55.84500     Fe( 1.00)
        Mg             2.00    24.30500     Mg( 1.00)
        O              6.00    15.99900     O ( 1.00)

     Starting magnetic structure 
     atomic species   magnetization
        Fe           0.000
        Mg           0.000
        O            0.000


     Simplified LDA+U calculation (l_max = 2) with parameters (eV):
     atomic species    L          U    alpha       J0     beta
        Fe             2     5.0000   0.0000   0.0000   0.0000



     48 Sym. Ops., with inversion, found


                                    s                        frac. trans.

      isym =  1     identity                                     

 cryst.   s( 1) = (     1          0          0      )
                  (     0          1          0      )
                  (     0          0          1      )

 cart.    s( 1) = (  1.0000000  0.0000000  0.0000000 )
                  (  0.0000000  1.0000000  0.0000000 )
                  (  0.0000000  0.0000000  1.0000000 )


      isym =  2     180 deg rotation - cart. axis [0,0,1]        

 cryst.   s( 2) = (    -1          0          0      )
                  (     0         -1          0      )
                  (     0          0          1      )

 cart.    s( 2) = ( -1.0000000  0.0000000  0.0000000 )
                  (  0.0000000 -1.0000000  0.0000000 )
                  (  0.0000000  0.0000000  1.0000000 )


      isym =  3     180 deg rotation - cart. axis [0,1,0]        

 cryst.   s( 3) = (    -1          0          0      )
                  (     0          1          0      )
                  (     0          0         -1      )

 cart.    s( 3) = ( -1.0000000  0.0000000  0.0000000 )
                  (  0.0000000  1.0000000  0.0000000 )
                  (  0.0000000  0.0000000 -1.0000000 )


      isym =  4     180 deg rotation - cart. axis [1,0,0]        

 cryst.   s( 4) = (     1          0          0      )
                  (     0         -1          0      )
                  (     0          0         -1      )

 cart.    s( 4) = (  1.0000000  0.0000000  0.0000000 )
                  (  0.0000000 -1.0000000  0.0000000 )
                  (  0.0000000  0.0000000 -1.0000000 )


      isym =  5     180 deg rotation - cart. axis [1,1,0]        

 cryst.   s( 5) = (     0          1          0      )
                  (     1          0          0      )
                  (     0          0         -1      )

 cart.    s( 5) = (  0.0000000  1.0000000  0.0000000 )
                  (  1.0000000  0.0000000  0.0000000 )
                  (  0.0000000  0.0000000 -1.0000000 )


      isym =  6     180 deg rotation - cart. axis [1,-1,0]       

 cryst.   s( 6) = (     0         -1          0      )
                  (    -1          0          0      )
                  (     0          0         -1      )

 cart.    s( 6) = (  0.0000000 -1.0000000  0.0000000 )
                  ( -1.0000000  0.0000000  0.0000000 )
                  (  0.0000000  0.0000000 -1.0000000 )


      isym =  7      90 deg rotation - cart. axis [0,0,-1]       

 cryst.   s( 7) = (     0         -1          0      )
                  (     1          0          0      )
                  (     0          0          1      )

 cart.    s( 7) = (  0.0000000  1.0000000  0.0000000 )
                  ( -1.0000000  0.0000000  0.0000000 )
                  (  0.0000000  0.0000000  1.0000000 )


      isym =  8      90 deg rotation - cart. axis [0,0,1]        

 cryst.   s( 8) = (     0          1          0      )
                  (    -1          0          0      )
                  (     0          0          1      )

 cart.    s( 8) = (  0.0000000 -1.0000000  0.0000000 )
                  (  1.0000000  0.0000000  0.0000000 )
                  (  0.0000000  0.0000000  1.0000000 )


      isym =  9     180 deg rotation - cart. axis [1,0,1]        

 cryst.   s( 9) = (     0          0          1      )
                  (     0         -1          0      )
                  (     1          0          0      )

 cart.    s( 9) = (  0.0000000  0.0000000  1.0000000 )
                  (  0.0000000 -1.0000000  0.0000000 )
                  (  1.0000000  0.0000000  0.0000000 )


      isym = 10     180 deg rotation - cart. axis [-1,0,1]       

 cryst.   s(10) = (     0          0         -1      )
                  (     0         -1          0      )
                  (    -1          0          0      )

 cart.    s(10) = (  0.0000000  0.0000000 -1.0000000 )
                  (  0.0000000 -1.0000000  0.0000000 )
                  ( -1.0000000  0.0000000  0.0000000 )


      isym = 11      90 deg rotation - cart. axis [0,1,0]        

 cryst.   s(11) = (     0          0         -1      )
                  (     0          1          0      )
                  (     1          0          0      )

 cart.    s(11) = (  0.0000000  0.0000000  1.0000000 )
                  (  0.0000000  1.0000000  0.0000000 )
                  ( -1.0000000  0.0000000  0.0000000 )


      isym = 12      90 deg rotation - cart. axis [0,-1,0]       

 cryst.   s(12) = (     0          0          1      )
                  (     0          1          0      )
                  (    -1          0          0      )

 cart.    s(12) = (  0.0000000  0.0000000 -1.0000000 )
                  (  0.0000000  1.0000000  0.0000000 )
                  (  1.0000000  0.0000000  0.0000000 )


      isym = 13     180 deg rotation - cart. axis [0,1,1]        

 cryst.   s(13) = (    -1          0          0      )
                  (     0          0          1      )
                  (     0          1          0      )

 cart.    s(13) = ( -1.0000000  0.0000000  0.0000000 )
                  (  0.0000000  0.0000000  1.0000000 )
                  (  0.0000000  1.0000000  0.0000000 )


      isym = 14     180 deg rotation - cart. axis [0,1,-1]       

 cryst.   s(14) = (    -1          0          0      )
                  (     0          0         -1      )
                  (     0         -1          0      )

 cart.    s(14) = ( -1.0000000  0.0000000  0.0000000 )
                  (  0.0000000  0.0000000 -1.0000000 )
                  (  0.0000000 -1.0000000  0.0000000 )


      isym = 15      90 deg rotation - cart. axis [-1,0,0]       

 cryst.   s(15) = (     1          0          0      )
                  (     0          0         -1      )
                  (     0          1          0      )

 cart.    s(15) = (  1.0000000  0.0000000  0.0000000 )
                  (  0.0000000  0.0000000  1.0000000 )
                  (  0.0000000 -1.0000000  0.0000000 )


      isym = 16      90 deg rotation - cart. axis [1,0,0]        

 cryst.   s(16) = (     1          0          0      )
                  (     0          0          1      )
                  (     0         -1          0      )

 cart.    s(16) = (  1.0000000  0.0000000  0.0000000 )
                  (  0.0000000  0.0000000 -1.0000000 )
                  (  0.0000000  1.0000000  0.0000000 )


      isym = 17     120 deg rotation - cart. axis [-1,-1,-1]     

 cryst.   s(17) = (     0          0          1      )
                  (     1          0          0      )
                  (     0          1          0      )

 cart.    s(17) = (  0.0000000  1.0000000  0.0000000 )
                  (  0.0000000  0.0000000  1.0000000 )
                  (  1.0000000  0.0000000  0.0000000 )


      isym = 18     120 deg rotation - cart. axis [-1,1,1]       

 cryst.   s(18) = (     0          0         -1      )
                  (    -1          0          0      )
                  (     0          1          0      )

 cart.    s(18) = (  0.0000000 -1.0000000  0.0000000 )
                  (  0.0000000  0.0000000  1.0000000 )
                  ( -1.0000000  0.0000000  0.0000000 )


      isym = 19     120 deg rotation - cart. axis [1,1,-1]       

 cryst.   s(19) = (     0          0         -1      )
                  (     1          0          0      )
                  (     0         -1          0      )

 cart.    s(19) = (  0.0000000  1.0000000  0.0000000 )
                  (  0.0000000  0.0000000 -1.0000000 )
                  ( -1.0000000  0.0000000  0.0000000 )


      isym = 20     120 deg rotation - cart. axis [1,-1,1]       

 cryst.   s(20) = (     0          0          1      )
                  (    -1          0          0      )
                  (     0         -1          0      )

 cart.    s(20) = (  0.0000000 -1.0000000  0.0000000 )
                  (  0.0000000  0.0000000 -1.0000000 )
                  (  1.0000000  0.0000000  0.0000000 )


      isym = 21     120 deg rotation - cart. axis [1,1,1]        

 cryst.   s(21) = (     0          1          0      )
                  (     0          0          1      )
                  (     1          0          0      )

 cart.    s(21) = (  0.0000000  0.0000000  1.0000000 )
                  (  1.0000000  0.0000000  0.0000000 )
                  (  0.0000000  1.0000000  0.0000000 )


      isym = 22     120 deg rotation - cart. axis [-1,1,-1]      

 cryst.   s(22) = (     0         -1          0      )
                  (     0          0         -1      )
                  (     1          0          0      )

 cart.    s(22) = (  0.0000000  0.0000000  1.0000000 )
                  ( -1.0000000  0.0000000  0.0000000 )
                  (  0.0000000 -1.0000000  0.0000000 )


      isym = 23     120 deg rotation - cart. axis [1,-1,-1]      

 cryst.   s(23) = (     0         -1          0      )
                  (     0          0          1      )
                  (    -1          0          0      )

 cart.    s(23) = (  0.0000000  0.0000000 -1.0000000 )
                  ( -1.0000000  0.0000000  0.0000000 )
                  (  0.0000000  1.0000000  0.0000000 )


      isym = 24     120 deg rotation - cart. axis [-1,-1,1]      

 cryst.   s(24) = (     0          1          0      )
                  (     0          0         -1      )
                  (    -1          0          0      )

 cart.    s(24) = (  0.0000000  0.0000000 -1.0000000 )
                  (  1.0000000  0.0000000  0.0000000 )
                  (  0.0000000 -1.0000000  0.0000000 )


      isym = 25     inversion                                    

 cryst.   s(25) = (    -1          0          0      )
                  (     0         -1          0      )
                  (     0          0         -1      )

 cart.    s(25) = ( -1.0000000  0.0000000  0.0000000 )
                  (  0.0000000 -1.0000000  0.0000000 )
                  (  0.0000000  0.0000000 -1.0000000 )


      isym = 26     inv. 180 deg rotation - cart. axis [0,0,1]   

 cryst.   s(26) = (     1          0          0      )
                  (     0          1          0      )
                  (     0          0         -1      )

 cart.    s(26) = (  1.0000000  0.0000000  0.0000000 )
                  (  0.0000000  1.0000000  0.0000000 )
                  (  0.0000000  0.0000000 -1.0000000 )


      isym = 27     inv. 180 deg rotation - cart. axis [0,1,0]   

 cryst.   s(27) = (     1          0          0      )
                  (     0         -1          0      )
                  (     0          0          1      )

 cart.    s(27) = (  1.0000000  0.0000000  0.0000000 )
                  (  0.0000000 -1.0000000  0.0000000 )
                  (  0.0000000  0.0000000  1.0000000 )


      isym = 28     inv. 180 deg rotation - cart. axis [1,0,0]   

 cryst.   s(28) = (    -1          0          0      )
                  (     0          1          0      )
                  (     0          0          1      )

 cart.    s(28) = ( -1.0000000  0.0000000  0.0000000 )
                  (  0.0000000  1.0000000  0.0000000 )
                  (  0.0000000  0.0000000  1.0000000 )


      isym = 29     inv. 180 deg rotation - cart. axis [1,1,0]   

 cryst.   s(29) = (     0         -1          0      )
                  (    -1          0          0      )
                  (     0          0          1      )

 cart.    s(29) = (  0.0000000 -1.0000000  0.0000000 )
                  ( -1.0000000  0.0000000  0.0000000 )
                  (  0.0000000  0.0000000  1.0000000 )


      isym = 30     inv. 180 deg rotation - cart. axis [1,-1,0]  

 cryst.   s(30) = (     0          1          0      )
                  (     1          0          0      )
                  (     0          0          1      )

 cart.    s(30) = (  0.0000000  1.0000000  0.0000000 )
                  (  1.0000000  0.0000000  0.0000000 )
                  (  0.0000000  0.0000000  1.0000000 )


      isym = 31     inv.  90 deg rotation - cart. axis [0,0,-1]  

 cryst.   s(31) = (     0          1          0      )
                  (    -1          0          0      )
                  (     0          0         -1      )

 cart.    s(31) = (  0.0000000 -1.0000000  0.0000000 )
                  (  1.0000000  0.0000000  0.0000000 )
                  (  0.0000000  0.0000000 -1.0000000 )


      isym = 32     inv.  90 deg rotation - cart. axis [0,0,1]   

 cryst.   s(32) = (     0         -1          0      )
                  (     1          0          0      )
                  (     0          0         -1      )

 cart.    s(32) = (  0.0000000  1.0000000  0.0000000 )
                  ( -1.0000000  0.0000000  0.0000000 )
                  (  0.0000000  0.0000000 -1.0000000 )


      isym = 33     inv. 180 deg rotation - cart. axis [1,0,1]   

 cryst.   s(33) = (     0          0         -1      )
                  (     0          1          0      )
                  (    -1          0          0      )

 cart.    s(33) = (  0.0000000  0.0000000 -1.0000000 )
                  (  0.0000000  1.0000000  0.0000000 )
                  ( -1.0000000  0.0000000  0.0000000 )


      isym = 34     inv. 180 deg rotation - cart. axis [-1,0,1]  

 cryst.   s(34) = (     0          0          1      )
                  (     0          1          0      )
                  (     1          0          0      )

 cart.    s(34) = (  0.0000000  0.0000000  1.0000000 )
                  (  0.0000000  1.0000000  0.0000000 )
                  (  1.0000000  0.0000000  0.0000000 )


      isym = 35     inv.  90 deg rotation - cart. axis [0,1,0]   

 cryst.   s(35) = (     0          0          1      )
                  (     0         -1          0      )
                  (    -1          0          0      )

 cart.    s(35) = (  0.0000000  0.0000000 -1.0000000 )
                  (  0.0000000 -1.0000000  0.0000000 )
                  (  1.0000000  0.0000000  0.0000000 )


      isym = 36     inv.  90 deg rotation - cart. axis [0,-1,0]  

 cryst.   s(36) = (     0          0         -1      )
                  (     0         -1          0      )
                  (     1          0          0      )

 cart.    s(36) = (  0.0000000  0.0000000  1.0000000 )
                  (  0.0000000 -1.0000000  0.0000000 )
                  ( -1.0000000  0.0000000  0.0000000 )


      isym = 37     inv. 180 deg rotation - cart. axis [0,1,1]   

 cryst.   s(37) = (     1          0          0      )
                  (     0          0         -1      )
                  (     0         -1          0      )

 cart.    s(37) = (  1.0000000  0.0000000  0.0000000 )
                  (  0.0000000  0.0000000 -1.0000000 )
                  (  0.0000000 -1.0000000  0.0000000 )


      isym = 38     inv. 180 deg rotation - cart. axis [0,1,-1]  

 cryst.   s(38) = (     1          0          0      )
                  (     0          0          1      )
                  (     0          1          0      )

 cart.    s(38) = (  1.0000000  0.0000000  0.0000000 )
                  (  0.0000000  0.0000000  1.0000000 )
                  (  0.0000000  1.0000000  0.0000000 )


      isym = 39     inv.  90 deg rotation - cart. axis [-1,0,0]  

 cryst.   s(39) = (    -1          0          0      )
                  (     0          0          1      )
                  (     0         -1          0      )

 cart.    s(39) = ( -1.0000000  0.0000000  0.0000000 )
                  (  0.0000000  0.0000000 -1.0000000 )
                  (  0.0000000  1.0000000  0.0000000 )


      isym = 40     inv.  90 deg rotation - cart. axis [1,0,0]   

 cryst.   s(40) = (    -1          0          0      )
                  (     0          0         -1      )
                  (     0          1          0      )

 cart.    s(40) = ( -1.0000000  0.0000000  0.0000000 )
                  (  0.0000000  0.0000000  1.0000000 )
                  (  0.0000000 -1.0000000  0.0000000 )


      isym = 41     inv. 120 deg rotation - cart. axis [-1,-1,-1]

 cryst.   s(41) = (     0          0         -1      )
                  (    -1          0          0      )
                  (     0         -1          0      )

 cart.    s(41) = (  0.0000000 -1.0000000  0.0000000 )
                  (  0.0000000  0.0000000 -1.0000000 )
                  ( -1.0000000  0.0000000  0.0000000 )


      isym = 42     inv. 120 deg rotation - cart. axis [-1,1,1]  

 cryst.   s(42) = (     0          0          1      )
                  (     1          0          0      )
                  (     0         -1          0      )

 cart.    s(42) = (  0.0000000  1.0000000  0.0000000 )
                  (  0.0000000  0.0000000 -1.0000000 )
                  (  1.0000000  0.0000000  0.0000000 )


      isym = 43     inv. 120 deg rotation - cart. axis [1,1,-1]  

 cryst.   s(43) = (     0          0          1      )
                  (    -1          0          0      )
                  (     0          1          0      )

 cart.    s(43) = (  0.0000000 -1.0000000  0.0000000 )
                  (  0.0000000  0.0000000  1.0000000 )
                  (  1.0000000  0.0000000  0.0000000 )


      isym = 44     inv. 120 deg rotation - cart. axis [1,-1,1]  

 cryst.   s(44) = (     0          0         -1      )
                  (     1          0          0      )
                  (     0          1          0      )

 cart.    s(44) = (  0.0000000  1.0000000  0.0000000 )
                  (  0.0000000  0.0000000  1.0000000 )
                  ( -1.0000000  0.0000000  0.0000000 )


      isym = 45     inv. 120 deg rotation - cart. axis [1,1,1]   

 cryst.   s(45) = (     0         -1          0      )
                  (     0          0         -1      )
                  (    -1          0          0      )

 cart.    s(45) = (  0.0000000  0.0000000 -1.0000000 )
                  ( -1.0000000  0.0000000  0.0000000 )
                  (  0.0000000 -1.0000000  0.0000000 )


      isym = 46     inv. 120 deg rotation - cart. axis [-1,1,-1] 

 cryst.   s(46) = (     0          1          0      )
                  (     0          0          1      )
                  (    -1          0          0      )

 cart.    s(46) = (  0.0000000  0.0000000 -1.0000000 )
                  (  1.0000000  0.0000000  0.0000000 )
                  (  0.0000000  1.0000000  0.0000000 )


      isym = 47     inv. 120 deg rotation - cart. axis [1,-1,-1] 

 cryst.   s(47) = (     0          1          0      )
                  (     0          0         -1      )
                  (     1          0          0      )

 cart.    s(47) = (  0.0000000  0.0000000  1.0000000 )
                  (  1.0000000  0.0000000  0.0000000 )
                  (  0.0000000 -1.0000000  0.0000000 )


      isym = 48     inv. 120 deg rotation - cart. axis [-1,-1,1] 

 cryst.   s(48) = (     0         -1          0      )
                  (     0          0          1      )
                  (     1          0          0      )

 cart.    s(48) = (  0.0000000  0.0000000  1.0000000 )
                  ( -1.0000000  0.0000000  0.0000000 )
                  (  0.0000000  1.0000000  0.0000000 )


     point group O_h (m-3m) 
     there are 10 classes
     the character table:

       E     8C3   3C2   6C4   6C2'  i     8S6   3s_h  6S4   6s_d 
A_1g   1.00  1.00  1.00  1.00  1.00  1.00  1.00  1.00  1.00  1.00
A_2g   1.00  1.00  1.00 -1.00 -1.00  1.00  1.00  1.00 -1.00 -1.00
E_g    2.00 -1.00  2.00  0.00  0.00  2.00 -1.00  2.00  0.00  0.00
T_1g   3.00  0.00 -1.00  1.00 -1.00  3.00  0.00 -1.00  1.00 -1.00
T_2g   3.00  0.00 -1.00 -1.00  1.00  3.00  0.00 -1.00 -1.00  1.00
A_1u   1.00  1.00  1.00  1.00  1.00 -1.00 -1.00 -1.00 -1.00 -1.00
A_2u   1.00  1.00  1.00 -1.00 -1.00 -1.00 -1.00 -1.00  1.00  1.00
E_u    2.00 -1.00  2.00  0.00  0.00 -2.00  1.00 -2.00  0.00  0.00
T_1u   3.00  0.00 -1.00  1.00 -1.00 -3.00  0.00  1.00 -1.00  1.00
T_2u   3.00  0.00 -1.00 -1.00  1.00 -3.00  0.00  1.00  1.00 -1.00

     the symmetry operations in each class and the name of the first element:

     E        1
          identity                                               
     8C3     17   19   20   18   24   21   22   23
          120 deg rotation - cart. axis [-1,-1,-1]               
     3C2      2    4    3
          180 deg rotation - cart. axis [0,0,1]                  
     6C4      7    8   15   16   12   11
           90 deg rotation - cart. axis [0,0,-1]                 
     6C2'     5    6   14   13   10    9
          180 deg rotation - cart. axis [1,1,0]                  
     i       25
          inversion                                              
     8S6     41   43   44   42   48   45   46   47
          inv. 120 deg rotation - cart. axis [-1,-1,-1]          
     3s_h    26   28   27
          inv. 180 deg rotation - cart. axis [0,0,1]             
     6S4     31   32   39   40   36   35
          inv.  90 deg rotation - cart. axis [0,0,-1]            
     6s_d    29   30   38   37   34   33
          inv. 180 deg rotation - cart. axis [1,1,0]             

   Cartesian axes

     site n.     atom                  positions (alat units)
         1           Fe  tau(   1) = (   0.0000000   0.0000000   0.0000000  )
         2           Mg  tau(   2) = (   0.0000000   0.5000000   0.5000000  )
         3           Mg  tau(   3) = (   0.5000000   0.0000000   0.5000000  )
         4           Mg  tau(   4) = (   0.5000000   0.5000000   0.0000000  )
         5           O   tau(   5) = (   0.5000000   0.5000000   0.5000000  )
         6           O   tau(   6) = (   0.5000000   0.0000000   0.0000000  )
         7           O   tau(   7) = (   0.0000000   0.5000000   0.0000000  )
         8           O   tau(   8) = (   0.0000000   0.0000000   0.5000000  )

   Crystallographic axes

     site n.     atom                  positions (cryst. coord.)
         1           Fe  tau(   1) = (  0.0000000  0.0000000  0.0000000  )
         2           Mg  tau(   2) = (  0.0000000  0.5000000  0.5000000  )
         3           Mg  tau(   3) = (  0.5000000  0.0000000  0.5000000  )
         4           Mg  tau(   4) = (  0.5000000  0.5000000  0.0000000  )
         5           O   tau(   5) = (  0.5000000  0.5000000  0.5000000  )
         6           O   tau(   6) = (  0.5000000  0.0000000  0.0000000  )
         7           O   tau(   7) = (  0.0000000  0.5000000  0.0000000  )
         8           O   tau(   8) = (  0.0000000  0.0000000  0.5000000  )

     number of k points=     4  Fermi-Dirac smearing, width (Ry)=  0.0019
                       cart. coord. in units 2pi/alat
        k(    1) = (   0.0000000   0.0000000   0.0000000), wk =   0.1250000
        k(    2) = (   0.0000000   0.0000000  -0.5000000), wk =   0.3750000
        k(    3) = (   0.0000000  -0.5000000  -0.5000000), wk =   0.3750000
        k(    4) = (  -0.5000000  -0.5000000  -0.5000000), wk =   0.1250000

                       cryst. coord.
        k(    1) = (   0.0000000   0.0000000   0.0000000), wk =   0.1250000
        k(    2) = (   0.0000000   0.0000000  -0.5000000), wk =   0.3750000
        k(    3) = (   0.0000000  -0.5000000  -0.5000000), wk =   0.3750000
        k(    4) = (  -0.5000000  -0.5000000  -0.5000000), wk =   0.1250000

     Dense  grid:  1540499 G-vectors     FFT dimensions: ( 144, 144, 144)

     Dynamical RAM for                 wfc:       1.96 MB

     Dynamical RAM for     wfc (w. buffer):      17.63 MB

     Dynamical RAM for             U proj.:       0.31 MB

     Dynamical RAM for  U proj. (w. buff.):       2.75 MB

     Dynamical RAM for           str. fact:       1.47 MB

     Dynamical RAM for           local pot:       0.00 MB

     Dynamical RAM for          nlocal pot:       1.84 MB

     Dynamical RAM for                qrad:       1.94 MB

     Dynamical RAM for          rho,v,vnew:       5.79 MB

     Dynamical RAM for               rhoin:       1.93 MB

     Dynamical RAM for            rho*nmix:      15.67 MB

     Dynamical RAM for           G-vectors:       2.08 MB

     Dynamical RAM for          h,s,v(r/c):       0.00 MB

     Dynamical RAM for          <psi|beta>:       0.01 MB

     Dynamical RAM for                 psi:       3.92 MB

     Dynamical RAM for                hpsi:       3.92 MB

     Dynamical RAM for      wfcinit/wfcrot:       6.43 MB

     Estimated static dynamical RAM per process >      55.90 MB

     Estimated max dynamical RAM per process >      63.76 MB

     Estimated total dynamical RAM >       2.99 GB
     Generating pointlists ...
     new r_m :   0.2063 (alat units)  1.6413 (a.u.) for type    1
     new r_m :   0.2063 (alat units)  1.6413 (a.u.) for type    2
     new r_m :   0.2063 (alat units)  1.6413 (a.u.) for type    3

     Initial potential from superposition of free atoms

     starting charge   39.00170, renormalised to   46.00000

     negative rho (up, down):  5.519E-07 5.519E-07
 --- in v_hubbard ---
Hubbard energy    0.4410
 -------
     Number of +U iterations with fixed ns =100
     Starting occupations:
 --- enter write_ns ---
 LDA+U parameters:
U( 1)     =  5.00000000
atom    1   Tr[ns(na)] (up, down, total) =   3.00000  3.00000  6.00000
   spin  1
    eigenvalues: 
  0.600  0.600  0.600  0.600  0.600
    eigenvectors:
  1.000  0.000  0.000  0.000  0.000
  0.000  1.000  0.000  0.000  0.000
  0.000  0.000  1.000  0.000  0.000
  0.000  0.000  0.000  1.000  0.000
  0.000  0.000  0.000  0.000  1.000
    occupations:
  0.600  0.000  0.000  0.000  0.000
  0.000  0.600  0.000  0.000  0.000
  0.000  0.000  0.600  0.000  0.000
  0.000  0.000  0.000  0.600  0.000
  0.000  0.000  0.000  0.000  0.600
   spin  2
    eigenvalues: 
  0.600  0.600  0.600  0.600  0.600
    eigenvectors:
  1.000  0.000  0.000  0.000  0.000
  0.000  1.000  0.000  0.000  0.000
  0.000  0.000  1.000  0.000  0.000
  0.000  0.000  0.000  1.000  0.000
  0.000  0.000  0.000  0.000  1.000
    occupations:
  0.600  0.000  0.000  0.000  0.000
  0.000  0.600  0.000  0.000  0.000
  0.000  0.000  0.600  0.000  0.000
  0.000  0.000  0.000  0.600  0.000
  0.000  0.000  0.000  0.000  0.600
atomic mag. moment =   0.00000
N of occupied +U levels =    6.000000
 --- exit write_ns ---
 Atomic wfc used for LDA+U Projector are NOT orthogonalized
     Starting wfcs are   52 randomized atomic wfcs

     total cpu time spent up to now is        4.6 secs

     Self-consistent Calculation

     iteration #  1     ecut=   800.00 Ry     beta= 0.30
     Davidson diagonalization with overlap
     ethr =  1.00E-02,  avg # of iterations = 10.2
 --- enter write_ns ---
 LDA+U parameters:
U( 1)     =  5.00000000
atom    1   Tr[ns(na)] (up, down, total) =   0.19347  0.15393  0.34740
   spin  1
    eigenvalues: 
  0.029  0.029  0.029  0.054  0.054
    eigenvectors:
  0.000  0.000  0.000  0.001  0.999
  0.134  0.022  0.844  0.000  0.000
  0.368  0.506  0.127  0.000  0.000
  0.000  0.000  0.000  0.999  0.001
  0.498  0.473  0.029  0.000  0.000
    occupations:
  0.054 -0.000 -0.000  0.000  0.000
 -0.000  0.029 -0.000  0.000  0.000
 -0.000 -0.000  0.029  0.000  0.000
  0.000  0.000  0.000  0.054 -0.000
  0.000  0.000  0.000 -0.000  0.029
   spin  2
    eigenvalues: 
  0.017  0.017  0.017  0.052  0.052
    eigenvectors:
  0.000  0.000  0.000  0.005  0.995
  0.109  0.006  0.885  0.000  0.000
  0.315  0.616  0.068  0.000  0.000
  0.000  0.000  0.000  0.995  0.005
  0.576  0.378  0.046  0.000  0.000
    occupations:
  0.052 -0.000 -0.000  0.000  0.000
 -0.000  0.017 -0.000  0.000  0.000
 -0.000 -0.000  0.017  0.000  0.000
  0.000  0.000  0.000  0.052 -0.000
  0.000  0.000  0.000 -0.000  0.017
atomic mag. moment =   0.03954
N of occupied +U levels =    0.347398
 --- exit write_ns ---
 Modify starting ns matrices according to input values 
 --- enter write_ns ---
 LDA+U parameters:
U( 1)     =  5.00000000
atom    1   Tr[ns(na)] (up, down, total) =   5.00000  1.00000  6.00000
   spin  1
    eigenvalues: 
  1.000  1.000  1.000  1.000  1.000
    eigenvectors:
  0.009  0.062  0.730  0.172  0.028
  0.110  0.522  0.185  0.173  0.009
  0.188  0.034  0.000  0.251  0.526
  0.044  0.115  0.085  0.361  0.394
  0.649  0.266  0.000  0.043  0.043
    occupations:
  1.000  0.000 -0.000 -0.000  0.000
  0.000  1.000  0.000  0.000 -0.000
 -0.000  0.000  1.000 -0.000  0.000
 -0.000  0.000 -0.000  1.000 -0.000
  0.000 -0.000  0.000 -0.000  1.000
   spin  2
    eigenvalues: 
 -0.000 -0.000  0.000  0.000  1.000
    eigenvectors:
  0.000  0.000  1.000  0.000  0.000
  0.330  0.354  0.000  0.207  0.109
  0.266  0.216  0.000  0.202  0.315
  0.005  0.422  0.000  0.572  0.000
  0.399  0.007  0.000  0.018  0.576
    occupations:
  0.000  0.000  0.000 -0.000 -0.000
  0.000  0.109  0.185 -0.000 -0.250
  0.000  0.185  0.315 -0.000 -0.426
 -0.000 -0.000 -0.000  0.000  0.000
 -0.000 -0.250 -0.426  0.000  0.576
atomic mag. moment =   4.00000
N of occupied +U levels =    6.000000
 --- exit write_ns ---

     RESET ns to initial values (iter <= mixing_fixed_ns)


     negative rho (up, down):  2.701E-07 3.026E-07
 --- in v_hubbard ---
Hubbard energy   -0.0000
 -------

     total cpu time spent up to now is        9.2 secs

     total energy              =    -372.65124414 Ry
     estimated scf accuracy    <      54.87494883 Ry

     total magnetization       =     4.00 Bohr mag/cell
     absolute magnetization    =     4.00 Bohr mag/cell

     iteration #  2     ecut=   800.00 Ry     beta= 0.30
     Davidson diagonalization with overlap
     ethr =  1.00E-02,  avg # of iterations =  9.8
 --- enter write_ns ---
 LDA+U parameters:
U( 1)     =  5.00000000
atom    1   Tr[ns(na)] (up, down, total) =   4.76015  4.04038  8.80053
   spin  1
    eigenvalues: 
  0.940  0.940  0.960  0.960  0.960
    eigenvectors:
  0.000  1.000  0.000  0.000  0.000
  0.000  0.000  0.113  0.003  0.884
  0.000  0.000  0.371  0.598  0.031
  1.000  0.000  0.000  0.000  0.000
  0.000  0.000  0.516  0.399  0.085
    occupations:
  0.940 -0.000 -0.000  0.000  0.000
 -0.000  0.960 -0.000  0.000  0.000
 -0.000 -0.000  0.960  0.000  0.000
  0.000  0.000  0.000  0.940 -0.000
  0.000  0.000  0.000 -0.000  0.960
   spin  2
    eigenvalues: 
  0.527  0.527  0.996  0.996  0.996
    eigenvectors:
  0.000  1.000  0.000  0.000  0.000
  0.000  0.000  0.113  0.003  0.884
  0.000  0.000  0.401  0.527  0.072
  1.000  0.000  0.000  0.000  0.000
  0.000  0.000  0.486  0.470  0.044
    occupations:
  0.527 -0.000 -0.000  0.000  0.000
 -0.000  0.996 -0.000  0.000  0.000
 -0.000 -0.000  0.996  0.000  0.000
  0.000  0.000  0.000  0.527 -0.000
  0.000  0.000  0.000 -0.000  0.996
atomic mag. moment =   0.71977
N of occupied +U levels =    8.800532
 --- exit write_ns ---

     RESET ns to initial values (iter <= mixing_fixed_ns)


     negative rho (up, down):  1.661E-07 2.006E-07
 --- in v_hubbard ---
Hubbard energy   -0.0000
 -------

     total cpu time spent up to now is       14.2 secs

     total energy              =    -378.45981632 Ry
     estimated scf accuracy    <      12.94764315 Ry

     total magnetization       =     4.00 Bohr mag/cell
     absolute magnetization    =     4.01 Bohr mag/cell

     iteration #  3     ecut=   800.00 Ry     beta= 0.30
     Davidson diagonalization with overlap
     ethr =  1.00E-02,  avg # of iterations =  2.2
 --- enter write_ns ---
 LDA+U parameters:
U( 1)     =  5.00000000
atom    1   Tr[ns(na)] (up, down, total) =   4.57038  1.25584  5.82622
   spin  1
    eigenvalues: 
  0.910  0.910  0.917  0.917  0.917
    eigenvectors:
  0.000  1.000  0.000  0.000  0.000
  0.000  0.000  0.114  0.000  0.886
  0.000  0.000  0.400  0.542  0.058
  1.000  0.000  0.000  0.000  0.000
  0.000  0.000  0.486  0.458  0.056
    occupations:
  0.910 -0.000 -0.000  0.000  0.000
 -0.000  0.917 -0.000  0.000  0.000
 -0.000 -0.000  0.917  0.000  0.000
  0.000  0.000  0.000  0.910 -0.000
  0.000  0.000  0.000 -0.000  0.917
   spin  2
    eigenvalues: 
  0.112  0.112  0.344  0.344  0.344
    eigenvectors:
  0.007  0.993  0.000  0.000  0.000
  0.000  0.000  0.124  0.005  0.871
  0.000  0.000  0.438  0.523  0.039
  0.993  0.007  0.000  0.000  0.000
  0.000  0.000  0.438  0.472  0.089
    occupations:
  0.112 -0.000 -0.000  0.000  0.000
 -0.000  0.344 -0.000  0.000  0.000
 -0.000 -0.000  0.344  0.000  0.000
  0.000  0.000  0.000  0.112 -0.000
  0.000  0.000  0.000 -0.000  0.344
atomic mag. moment =   3.31454
N of occupied +U levels =    5.826221
 --- exit write_ns ---

     RESET ns to initial values (iter <= mixing_fixed_ns)


     negative rho (up, down):  6.718E-08 9.955E-08
 --- in v_hubbard ---
Hubbard energy   -0.0000
 -------

     total cpu time spent up to now is       16.7 secs

     total energy              =    -381.71334099 Ry
     estimated scf accuracy    <       1.83734791 Ry

     total magnetization       =     4.00 Bohr mag/cell
     absolute magnetization    =     4.01 Bohr mag/cell

     iteration #  4     ecut=   800.00 Ry     beta= 0.30
     Davidson diagonalization with overlap
     ethr =  3.99E-03,  avg # of iterations =  2.4
 --- enter write_ns ---
 LDA+U parameters:
U( 1)     =  5.00000000
atom    1   Tr[ns(na)] (up, down, total) =   4.80641  1.33240  6.13881
   spin  1
    eigenvalues: 
  0.933  0.933  0.980  0.980  0.980
    eigenvectors:
  0.002  0.998  0.000  0.000  0.000
  0.000  0.000  0.116  0.002  0.882
  0.000  0.000  0.382  0.549  0.069
  0.998  0.002  0.000  0.000  0.000
  0.000  0.000  0.502  0.449  0.049
    occupations:
  0.933 -0.000 -0.000  0.000  0.000
 -0.000  0.980 -0.000  0.000  0.000
 -0.000 -0.000  0.980  0.000  0.000
  0.000  0.000  0.000  0.933 -0.000
  0.000  0.000  0.000 -0.000  0.980
   spin  2
    eigenvalues: 
  0.128  0.128  0.358  0.358  0.358
    eigenvectors:
  0.000  1.000  0.000  0.000  0.000
  0.000  0.000  0.124  0.004  0.871
  0.000  0.000  0.438  0.474  0.088
  1.000  0.000  0.000  0.000  0.000
  0.000  0.000  0.438  0.522  0.040
    occupations:
  0.128 -0.000 -0.000  0.000  0.000
 -0.000  0.358 -0.000  0.000  0.000
 -0.000 -0.000  0.358  0.000  0.000
  0.000  0.000  0.000  0.128 -0.000
  0.000  0.000  0.000 -0.000  0.358
atomic mag. moment =   3.47401
N of occupied +U levels =    6.138809
 --- exit write_ns ---

     RESET ns to initial values (iter <= mixing_fixed_ns)

 --- in v_hubbard ---
Hubbard energy   -0.0000
 -------

     total cpu time spent up to now is       19.1 secs

     total energy              =    -381.82834569 Ry
     estimated scf accuracy    <       0.62097629 Ry

     total magnetization       =     4.00 Bohr mag/cell
     absolute magnetization    =     4.01 Bohr mag/cell

     iteration #  5     ecut=   800.00 Ry     beta= 0.30
     Davidson diagonalization with overlap
     ethr =  1.35E-03,  avg # of iterations =  3.4
 --- enter write_ns ---
 LDA+U parameters:
U( 1)     =  5.00000000
atom    1   Tr[ns(na)] (up, down, total) =   4.97061  1.36887  6.33948
   spin  1
    eigenvalues: 
  0.992  0.992  0.992  0.997  0.997
    eigenvectors:
  0.000  0.000  0.000  0.056  0.944
  0.111  0.002  0.887  0.000  0.000
  0.387  0.547  0.066  0.000  0.000
  0.000  0.000  0.000  0.944  0.056
  0.502  0.451  0.047  0.000  0.000
    occupations:
  0.997 -0.000 -0.000  0.000  0.000
 -0.000  0.992 -0.000  0.000  0.000
 -0.000 -0.000  0.992  0.000  0.000
  0.000  0.000  0.000  0.997 -0.000
  0.000  0.000  0.000 -0.000  0.992
   spin  2
    eigenvalues: 
  0.137  0.137  0.365  0.365  0.365
    eigenvectors:
  0.003  0.997  0.000  0.000  0.000
  0.000  0.000  0.109  0.000  0.890
  0.000  0.000  0.410  0.532  0.058
  0.997  0.003  0.000  0.000  0.000
  0.000  0.000  0.481  0.468  0.051
    occupations:
  0.137 -0.000 -0.000  0.000  0.000
 -0.000  0.365 -0.000  0.000  0.000
 -0.000 -0.000  0.365  0.000  0.000
  0.000  0.000  0.000  0.137 -0.000
  0.000  0.000  0.000 -0.000  0.365
atomic mag. moment =   3.60175
N of occupied +U levels =    6.339480
 --- exit write_ns ---

     RESET ns to initial values (iter <= mixing_fixed_ns)

 --- in v_hubbard ---
Hubbard energy   -0.0000
 -------

     total cpu time spent up to now is       21.6 secs

     total energy              =    -382.01763123 Ry
     estimated scf accuracy    <       0.10976035 Ry

     total magnetization       =     4.00 Bohr mag/cell
     absolute magnetization    =     4.01 Bohr mag/cell

     iteration #  6     ecut=   800.00 Ry     beta= 0.30
     Davidson diagonalization with overlap
     ethr =  2.39E-04,  avg # of iterations =  3.1
 --- enter write_ns ---
 LDA+U parameters:
U( 1)     =  5.00000000
atom    1   Tr[ns(na)] (up, down, total) =   4.98714  1.36066  6.34780
   spin  1
    eigenvalues: 
  0.997  0.997  0.997  0.998  0.998
    eigenvectors:
  0.000  0.000  0.000  0.003  0.997
  0.115  0.003  0.882  0.000  0.000
  0.373  0.557  0.070  0.000  0.000
  0.000  0.000  0.000  0.997  0.003
  0.512  0.440  0.048  0.000  0.000
    occupations:
  0.998 -0.000 -0.000  0.000  0.000
 -0.000  0.997 -0.000  0.000  0.000
 -0.000 -0.000  0.997  0.000  0.000
  0.000  0.000  0.000  0.998 -0.000
  0.000  0.000  0.000 -0.000  0.997
   spin  2
    eigenvalues: 
  0.134  0.134  0.364  0.364  0.364
    eigenvectors:
  0.000  1.000  0.000  0.000  0.000
  0.000  0.000  0.105  0.009  0.887
  0.000  0.000  0.391  0.527  0.082
  1.000  0.000  0.000  0.000  0.000
  0.000  0.000  0.504  0.465  0.031
    occupations:
  0.134 -0.000 -0.000  0.000  0.000
 -0.000  0.364 -0.000  0.000  0.000
 -0.000 -0.000  0.364  0.000  0.000
  0.000  0.000  0.000  0.134 -0.000
  0.000  0.000  0.000 -0.000  0.364
atomic mag. moment =   3.62647
N of occupied +U levels =    6.347800
 --- exit write_ns ---

     RESET ns to initial values (iter <= mixing_fixed_ns)

 --- in v_hubbard ---
Hubbard energy   -0.0000
 -------

     total cpu time spent up to now is       24.2 secs

     total energy              =    -382.02238712 Ry
     estimated scf accuracy    <       0.02092910 Ry

     total magnetization       =     4.00 Bohr mag/cell
     absolute magnetization    =     4.02 Bohr mag/cell

     iteration #  7     ecut=   800.00 Ry     beta= 0.30
     Davidson diagonalization with overlap
     ethr =  4.55E-05,  avg # of iterations =  4.0
 --- enter write_ns ---
 LDA+U parameters:
U( 1)     =  5.00000000
atom    1   Tr[ns(na)] (up, down, total) =   4.98314  1.34230  6.32544
   spin  1
    eigenvalues: 
  0.996  0.996  0.996  0.998  0.998
    eigenvectors:
  0.000  0.000  0.000  0.004  0.996
  0.119  0.016  0.865  0.000  0.000
  0.353  0.544  0.103  0.000  0.000
  0.000  0.000  0.000  0.996  0.004
  0.528  0.440  0.032  0.000  0.000
    occupations:
  0.998 -0.000 -0.000  0.000  0.000
 -0.000  0.996 -0.000  0.000  0.000
 -0.000 -0.000  0.996  0.000  0.000
  0.000  0.000  0.000  0.998 -0.000
  0.000  0.000  0.000 -0.000  0.996
   spin  2
    eigenvalues: 
  0.129  0.129  0.362  0.362  0.362
    eigenvectors:
  0.056  0.944  0.000  0.000  0.000
  0.000  0.000  0.105  0.000  0.895
  0.000  0.000  0.455  0.491  0.053
  0.944  0.056  0.000  0.000  0.000
  0.000  0.000  0.440  0.509  0.052
    occupations:
  0.129 -0.000 -0.000  0.000  0.000
 -0.000  0.362 -0.000  0.000  0.000
 -0.000 -0.000  0.362  0.000  0.000
  0.000  0.000  0.000  0.129 -0.000
  0.000  0.000  0.000 -0.000  0.362
atomic mag. moment =   3.64085
N of occupied +U levels =    6.325441
 --- exit write_ns ---

     RESET ns to initial values (iter <= mixing_fixed_ns)

 --- in v_hubbard ---
Hubbard energy   -0.0000
 -------

     total cpu time spent up to now is       27.0 secs

     total energy              =    -382.02554749 Ry
     estimated scf accuracy    <       0.00171183 Ry

     total magnetization       =     4.00 Bohr mag/cell
     absolute magnetization    =     4.01 Bohr mag/cell

     iteration #  8     ecut=   800.00 Ry     beta= 0.30
     Davidson diagonalization with overlap
     ethr =  3.72E-06,  avg # of iterations =  6.9
 --- enter write_ns ---
 LDA+U parameters:
U( 1)     =  5.00000000
atom    1   Tr[ns(na)] (up, down, total) =   4.98075  1.32602  6.30677
   spin  1
    eigenvalues: 
  0.995  0.995  0.995  0.998  0.998
    eigenvectors:
  0.000  0.000  0.000  0.004  0.996
  0.121  0.001  0.878  0.000  0.000
  0.402  0.532  0.066  0.000  0.000
  0.000  0.000  0.000  0.996  0.004
  0.476  0.467  0.056  0.000  0.000
    occupations:
  0.998 -0.000 -0.000  0.000  0.000
 -0.000  0.995 -0.000  0.000  0.000
 -0.000 -0.000  0.995  0.000  0.000
  0.000  0.000  0.000  0.998 -0.000
  0.000  0.000  0.000 -0.000  0.995
   spin  2
    eigenvalues: 
  0.124  0.124  0.359  0.359  0.359
    eigenvectors:
  0.017  0.983  0.000  0.000  0.000
  0.000  0.000  0.131  0.010  0.859
  0.000  0.000  0.461  0.504  0.036
  0.983  0.017  0.000  0.000  0.000
  0.000  0.000  0.408  0.486  0.106
    occupations:
  0.124 -0.000 -0.000  0.000  0.000
 -0.000  0.359 -0.000  0.000  0.000
 -0.000 -0.000  0.359  0.000  0.000
  0.000  0.000  0.000  0.124 -0.000
  0.000  0.000  0.000 -0.000  0.359
atomic mag. moment =   3.65472
N of occupied +U levels =    6.306769
 --- exit write_ns ---

     RESET ns to initial values (iter <= mixing_fixed_ns)

 --- in v_hubbard ---
Hubbard energy   -0.0000
 -------

     total cpu time spent up to now is       30.3 secs

     total energy              =    -382.02544777 Ry
     estimated scf accuracy    <       0.00139482 Ry

     total magnetization       =     4.00 Bohr mag/cell
     absolute magnetization    =     4.02 Bohr mag/cell

     iteration #  9     ecut=   800.00 Ry     beta= 0.30
     Davidson diagonalization with overlap
     ethr =  3.03E-06,  avg # of iterations =  3.0
 --- enter write_ns ---
 LDA+U parameters:
U( 1)     =  5.00000000
atom    1   Tr[ns(na)] (up, down, total) =   4.98417  1.34361  6.32778
   spin  1
    eigenvalues: 
  0.996  0.996  0.996  0.998  0.998
    eigenvectors:
  0.000  0.000  0.000  0.004  0.996
  0.115  0.019  0.866  0.000  0.000
  0.347  0.547  0.105  0.000  0.000
  0.000  0.000  0.000  0.996  0.004
  0.538  0.434  0.028  0.000  0.000
    occupations:
  0.998 -0.000 -0.000  0.000  0.000
 -0.000  0.996 -0.000  0.000  0.000
 -0.000 -0.000  0.996  0.000  0.000
  0.000  0.000  0.000  0.998 -0.000
  0.000  0.000  0.000 -0.000  0.996
   spin  2
    eigenvalues: 
  0.129  0.129  0.362  0.362  0.362
    eigenvectors:
  0.000  1.000  0.000  0.000  0.000
  0.000  0.000  0.130  0.000  0.870
  0.000  0.000  0.428  0.508  0.064
  1.000  0.000  0.000  0.000  0.000
  0.000  0.000  0.442  0.492  0.066
    occupations:
  0.129 -0.000 -0.000  0.000  0.000
 -0.000  0.362 -0.000  0.000  0.000
 -0.000 -0.000  0.362  0.000  0.000
  0.000  0.000  0.000  0.129 -0.000
  0.000  0.000  0.000 -0.000  0.362
atomic mag. moment =   3.64055
N of occupied +U levels =    6.327777
 --- exit write_ns ---

     RESET ns to initial values (iter <= mixing_fixed_ns)

 --- in v_hubbard ---
Hubbard energy   -0.0000
 -------

     total cpu time spent up to now is       33.2 secs

     total energy              =    -382.02585098 Ry
     estimated scf accuracy    <       0.00183452 Ry

     total magnetization       =     4.00 Bohr mag/cell
     absolute magnetization    =     4.02 Bohr mag/cell

     iteration # 10     ecut=   800.00 Ry     beta= 0.30
     Davidson diagonalization with overlap
     ethr =  3.03E-06,  avg # of iterations =  2.1
 --- enter write_ns ---
 LDA+U parameters:
U( 1)     =  5.00000000
atom    1   Tr[ns(na)] (up, down, total) =   4.98242  1.33402  6.31645
   spin  1
    eigenvalues: 
  0.996  0.996  0.996  0.998  0.998
    eigenvectors:
  0.000  0.000  0.000  0.002  0.998
  0.133  0.020  0.847  0.000  0.000
  0.364  0.514  0.121  0.000  0.000
  0.000  0.000  0.000  0.998  0.002
  0.503  0.466  0.031  0.000  0.000
    occupations:
  0.998 -0.000 -0.000  0.000  0.000
 -0.000  0.996 -0.000  0.000  0.000
 -0.000 -0.000  0.996  0.000  0.000
  0.000  0.000  0.000  0.998 -0.000
  0.000  0.000  0.000 -0.000  0.996
   spin  2
    eigenvalues: 
  0.126  0.126  0.360  0.360  0.360
    eigenvectors:
  0.004  0.996  0.000  0.000  0.000
  0.000  0.000  0.120  0.000  0.880
  0.000  0.000  0.436  0.510  0.054
  0.996  0.004  0.000  0.000  0.000
  0.000  0.000  0.444  0.490  0.067
    occupations:
  0.126 -0.000 -0.000  0.000  0.000
 -0.000  0.360 -0.000  0.000  0.000
 -0.000 -0.000  0.360  0.000  0.000
  0.000  0.000  0.000  0.126 -0.000
  0.000  0.000  0.000 -0.000  0.360
atomic mag. moment =   3.64840
N of occupied +U levels =    6.316447
 --- exit write_ns ---

     RESET ns to initial values (iter <= mixing_fixed_ns)

 --- in v_hubbard ---
Hubbard energy   -0.0000
 -------

     total cpu time spent up to now is       35.9 secs

     total energy              =    -382.02620033 Ry
     estimated scf accuracy    <       0.00001265 Ry

     total magnetization       =     4.00 Bohr mag/cell
     absolute magnetization    =     4.02 Bohr mag/cell

     iteration # 11     ecut=   800.00 Ry     beta= 0.30
     Davidson diagonalization with overlap
     ethr =  2.75E-08,  avg # of iterations =  4.1
 --- enter write_ns ---
 LDA+U parameters:
U( 1)     =  5.00000000
atom    1   Tr[ns(na)] (up, down, total) =   4.98233  1.33340  6.31574
   spin  1
    eigenvalues: 
  0.996  0.996  0.996  0.998  0.998
    eigenvectors:
  0.000  0.000  0.000  0.000  1.000
  0.123  0.003  0.873  0.000  0.000
  0.395  0.525  0.080  0.000  0.000
  0.000  0.000  0.000  1.000  0.000
  0.481  0.472  0.047  0.000  0.000
    occupations:
  0.998 -0.000 -0.000  0.000  0.000
 -0.000  0.996 -0.000  0.000  0.000
 -0.000 -0.000  0.996  0.000  0.000
  0.000  0.000  0.000  0.998 -0.000
  0.000  0.000  0.000 -0.000  0.996
   spin  2
    eigenvalues: 
  0.126  0.126  0.360  0.360  0.360
    eigenvectors:
  0.003  0.997  0.000  0.000  0.000
  0.000  0.000  0.116  0.004  0.880
  0.000  0.000  0.463  0.452  0.085
  0.997  0.003  0.000  0.000  0.000
  0.000  0.000  0.421  0.544  0.035
    occupations:
  0.126 -0.000 -0.000  0.000  0.000
 -0.000  0.360 -0.000  0.000  0.000
 -0.000 -0.000  0.360  0.000  0.000
  0.000  0.000  0.000  0.126 -0.000
  0.000  0.000  0.000 -0.000  0.360
atomic mag. moment =   3.64893
N of occupied +U levels =    6.315736
 --- exit write_ns ---

     RESET ns to initial values (iter <= mixing_fixed_ns)

 --- in v_hubbard ---
Hubbard energy   -0.0000
 -------

     total cpu time spent up to now is       39.0 secs

     total energy              =    -382.02620611 Ry
     estimated scf accuracy    <       0.00000741 Ry

     total magnetization       =     4.00 Bohr mag/cell
     absolute magnetization    =     4.02 Bohr mag/cell

     iteration # 12     ecut=   800.00 Ry     beta= 0.30
     Davidson diagonalization with overlap
     ethr =  1.61E-08,  avg # of iterations =  2.0
 --- enter write_ns ---
 LDA+U parameters:
U( 1)     =  5.00000000
atom    1   Tr[ns(na)] (up, down, total) =   4.98241  1.33381  6.31622
   spin  1
    eigenvalues: 
  0.996  0.996  0.996  0.998  0.998
    eigenvectors:
  0.000  0.000  0.000  0.005  0.995
  0.104  0.007  0.889  0.000  0.000
  0.343  0.585  0.072  0.000  0.000
  0.000  0.000  0.000  0.995  0.005
  0.553  0.408  0.039  0.000  0.000
    occupations:
  0.998 -0.000 -0.000  0.000  0.000
 -0.000  0.996 -0.000  0.000  0.000
 -0.000 -0.000  0.996  0.000  0.000
  0.000  0.000  0.000  0.998 -0.000
  0.000  0.000  0.000 -0.000  0.996
   spin  2
    eigenvalues: 
  0.126  0.126  0.360  0.360  0.360
    eigenvectors:
  0.062  0.938  0.000  0.000  0.000
  0.000  0.000  0.130  0.001  0.869
  0.000  0.000  0.459  0.485  0.056
  0.938  0.062  0.000  0.000  0.000
  0.000  0.000  0.411  0.514  0.075
    occupations:
  0.126 -0.000 -0.000  0.000  0.000
 -0.000  0.360 -0.000  0.000  0.000
 -0.000 -0.000  0.360  0.000  0.000
  0.000  0.000  0.000  0.126 -0.000
  0.000  0.000  0.000 -0.000  0.360
atomic mag. moment =   3.64859
N of occupied +U levels =    6.316220
 --- exit write_ns ---

     RESET ns to initial values (iter <= mixing_fixed_ns)

 --- in v_hubbard ---
Hubbard energy   -0.0000
 -------

     total cpu time spent up to now is       41.3 secs

     total energy              =    -382.02620648 Ry
     estimated scf accuracy    <       0.00000127 Ry

     total magnetization       =     4.00 Bohr mag/cell
     absolute magnetization    =     4.02 Bohr mag/cell

     iteration # 13     ecut=   800.00 Ry     beta= 0.30
     Davidson diagonalization with overlap
     ethr =  2.76E-09,  avg # of iterations =  2.4
 --- enter write_ns ---
 LDA+U parameters:
U( 1)     =  5.00000000
atom    1   Tr[ns(na)] (up, down, total) =   4.98244  1.33395  6.31638
   spin  1
    eigenvalues: 
  0.996  0.996  0.996  0.998  0.998
    eigenvectors:
  0.000  0.000  0.000  0.015  0.985
  0.115  0.002  0.883  0.000  0.000
  0.414  0.514  0.072  0.000  0.000
  0.000  0.000  0.000  0.985  0.015
  0.472  0.483  0.045  0.000  0.000
    occupations:
  0.998 -0.000 -0.000  0.000  0.000
 -0.000  0.996 -0.000  0.000  0.000
 -0.000 -0.000  0.996  0.000  0.000
  0.000  0.000  0.000  0.998 -0.000
  0.000  0.000  0.000 -0.000  0.996
   spin  2
    eigenvalues: 
  0.126  0.126  0.360  0.360  0.360
    eigenvectors:
  0.001  0.999  0.000  0.000  0.000
  0.000  0.000  0.110  0.008  0.883
  0.000  0.000  0.445  0.527  0.028
  0.999  0.001  0.000  0.000  0.000
  0.000  0.000  0.445  0.465  0.089
    occupations:
  0.126 -0.000 -0.000  0.000  0.000
 -0.000  0.360 -0.000  0.000  0.000
 -0.000 -0.000  0.360  0.000  0.000
  0.000  0.000  0.000  0.126 -0.000
  0.000  0.000  0.000 -0.000  0.360
atomic mag. moment =   3.64849
N of occupied +U levels =    6.316385
 --- exit write_ns ---

     RESET ns to initial values (iter <= mixing_fixed_ns)

 --- in v_hubbard ---
Hubbard energy   -0.0000
 -------

     total cpu time spent up to now is       43.9 secs

     total energy              =    -382.02620672 Ry
     estimated scf accuracy    <       0.00000013 Ry

     total magnetization       =     4.00 Bohr mag/cell
     absolute magnetization    =     4.02 Bohr mag/cell

     iteration # 14     ecut=   800.00 Ry     beta= 0.30
     Davidson diagonalization with overlap
     ethr =  2.78E-10,  avg # of iterations =  3.9
 --- enter write_ns ---
 LDA+U parameters:
U( 1)     =  5.00000000
atom    1   Tr[ns(na)] (up, down, total) =   4.98245  1.33404  6.31648
   spin  1
    eigenvalues: 
  0.996  0.996  0.996  0.998  0.998
    eigenvectors:
  0.000  0.000  0.000  0.011  0.989
  0.126  0.036  0.838  0.000  0.000
  0.349  0.509  0.142  0.000  0.000
  0.000  0.000  0.000  0.989  0.011
  0.525  0.455  0.020  0.000  0.000
    occupations:
  0.998 -0.000 -0.000  0.000  0.000
 -0.000  0.996 -0.000  0.000  0.000
 -0.000 -0.000  0.996  0.000  0.000
  0.000  0.000  0.000  0.998 -0.000
  0.000  0.000  0.000 -0.000  0.996
   spin  2
    eigenvalues: 
  0.126  0.126  0.360  0.360  0.360
    eigenvectors:
  0.015  0.985  0.000  0.000  0.000
  0.000  0.000  0.127  0.007  0.867
  0.000  0.000  0.460  0.502  0.038
  0.985  0.015  0.000  0.000  0.000
  0.000  0.000  0.414  0.491  0.095
    occupations:
  0.126 -0.000 -0.000  0.000  0.000
 -0.000  0.360 -0.000  0.000  0.000
 -0.000 -0.000  0.360  0.000  0.000
  0.000  0.000  0.000  0.126 -0.000
  0.000  0.000  0.000 -0.000  0.360
atomic mag. moment =   3.64841
N of occupied +U levels =    6.316485
 --- exit write_ns ---

     RESET ns to initial values (iter <= mixing_fixed_ns)

 --- in v_hubbard ---
Hubbard energy   -0.0000
 -------

     total cpu time spent up to now is       46.7 secs

     total energy              =    -382.02620676 Ry
     estimated scf accuracy    <          5.6E-09 Ry

     total magnetization       =     4.00 Bohr mag/cell
     absolute magnetization    =     4.02 Bohr mag/cell

     iteration # 15     ecut=   800.00 Ry     beta= 0.30
     Davidson diagonalization with overlap
     ethr =  1.22E-11,  avg # of iterations =  3.1
 --- enter write_ns ---
 LDA+U parameters:
U( 1)     =  5.00000000
atom    1   Tr[ns(na)] (up, down, total) =   4.98245  1.33403  6.31648
   spin  1
    eigenvalues: 
  0.996  0.996  0.996  0.998  0.998
    eigenvectors:
  0.000  0.000  0.000  0.001  0.999
  0.120  0.014  0.866  0.000  0.000
  0.368  0.530  0.102  0.000  0.000
  0.000  0.000  0.000  0.999  0.001
  0.512  0.456  0.032  0.000  0.000
    occupations:
  0.998 -0.000 -0.000  0.000  0.000
 -0.000  0.996 -0.000  0.000  0.000
 -0.000 -0.000  0.996  0.000  0.000
  0.000  0.000  0.000  0.998 -0.000
  0.000  0.000  0.000 -0.000  0.996
   spin  2
    eigenvalues: 
  0.126  0.126  0.360  0.360  0.360
    eigenvectors:
  0.023  0.977  0.000  0.000  0.000
  0.000  0.000  0.109  0.007  0.884
  0.000  0.000  0.440  0.531  0.029
  0.977  0.023  0.000  0.000  0.000
  0.000  0.000  0.451  0.462  0.087
    occupations:
  0.126 -0.000 -0.000  0.000  0.000
 -0.000  0.360 -0.000  0.000  0.000
 -0.000 -0.000  0.360  0.000  0.000
  0.000  0.000  0.000  0.126 -0.000
  0.000  0.000  0.000 -0.000  0.360
atomic mag. moment =   3.64842
N of occupied +U levels =    6.316479
 --- exit write_ns ---

     RESET ns to initial values (iter <= mixing_fixed_ns)

 --- in v_hubbard ---
Hubbard energy   -0.0000
 -------

     total cpu time spent up to now is       49.4 secs

     total energy              =    -382.02620676 Ry
     estimated scf accuracy    <          4.3E-09 Ry

     total magnetization       =     4.00 Bohr mag/cell
     absolute magnetization    =     4.02 Bohr mag/cell

     iteration # 16     ecut=   800.00 Ry     beta= 0.30
     Davidson diagonalization with overlap
     ethr =  9.41E-12,  avg # of iterations =  2.8
 --- enter write_ns ---
 LDA+U parameters:
U( 1)     =  5.00000000
atom    1   Tr[ns(na)] (up, down, total) =   4.98245  1.33402  6.31647
   spin  1
    eigenvalues: 
  0.996  0.996  0.996  0.998  0.998
    eigenvectors:
  0.000  0.000  0.000  0.006  0.994
  0.110  0.012  0.878  0.000  0.000
  0.355  0.556  0.089  0.000  0.000
  0.000  0.000  0.000  0.994  0.006
  0.535  0.432  0.033  0.000  0.000
    occupations:
  0.998 -0.000 -0.000  0.000  0.000
 -0.000  0.996 -0.000  0.000  0.000
 -0.000 -0.000  0.996  0.000  0.000
  0.000  0.000  0.000  0.998 -0.000
  0.000  0.000  0.000 -0.000  0.996
   spin  2
    eigenvalues: 
  0.126  0.126  0.360  0.360  0.360
    eigenvectors:
  0.011  0.989  0.000  0.000  0.000
  0.000  0.000  0.117  0.002  0.881
  0.000  0.000  0.469  0.453  0.078
  0.989  0.011  0.000  0.000  0.000
  0.000  0.000  0.414  0.545  0.040
    occupations:
  0.126 -0.000 -0.000  0.000  0.000
 -0.000  0.360 -0.000  0.000  0.000
 -0.000 -0.000  0.360  0.000  0.000
  0.000  0.000  0.000  0.126 -0.000
  0.000  0.000  0.000 -0.000  0.360
atomic mag. moment =   3.64842
N of occupied +U levels =    6.316470
 --- exit write_ns ---

     RESET ns to initial values (iter <= mixing_fixed_ns)

 --- in v_hubbard ---
Hubbard energy   -0.0000
 -------

     total cpu time spent up to now is       52.2 secs

     total energy              =    -382.02620676 Ry
     estimated scf accuracy    <          1.9E-09 Ry

     total magnetization       =     4.00 Bohr mag/cell
     absolute magnetization    =     4.02 Bohr mag/cell

     iteration # 17     ecut=   800.00 Ry     beta= 0.30
     Davidson diagonalization with overlap
     ethr =  4.24E-12,  avg # of iterations =  2.0
 --- enter write_ns ---
 LDA+U parameters:
U( 1)     =  5.00000000
atom    1   Tr[ns(na)] (up, down, total) =   4.98245  1.33403  6.31648
   spin  1
    eigenvalues: 
  0.996  0.996  0.996  0.998  0.998
    eigenvectors:
  0.000  0.000  0.000  0.000  1.000
  0.120  0.014  0.866  0.000  0.000
  0.365  0.533  0.102  0.000  0.000
  0.000  0.000  0.000  1.000  0.000
  0.515  0.452  0.033  0.000  0.000
    occupations:
  0.998 -0.000 -0.000  0.000  0.000
 -0.000  0.996 -0.000  0.000  0.000
 -0.000 -0.000  0.996  0.000  0.000
  0.000  0.000  0.000  0.998 -0.000
  0.000  0.000  0.000 -0.000  0.996
   spin  2
    eigenvalues: 
  0.126  0.126  0.360  0.360  0.360
    eigenvectors:
  0.003  0.997  0.000  0.000  0.000
  0.000  0.000  0.118  0.002  0.880
  0.000  0.000  0.394  0.535  0.071
  0.997  0.003  0.000  0.000  0.000
  0.000  0.000  0.488  0.463  0.049
    occupations:
  0.126 -0.000 -0.000  0.000  0.000
 -0.000  0.360 -0.000  0.000  0.000
 -0.000 -0.000  0.360  0.000  0.000
  0.000  0.000  0.000  0.126 -0.000
  0.000  0.000  0.000 -0.000  0.360
atomic mag. moment =   3.64842
N of occupied +U levels =    6.316478
 --- exit write_ns ---

     RESET ns to initial values (iter <= mixing_fixed_ns)

 --- in v_hubbard ---
Hubbard energy   -0.0000
 -------
 
     Magnetic moment per site:
     atom:    1    charge:   13.4769    magn:    3.5223    constr:    0.0000
     atom:    2    charge:    0.2553    magn:   -0.0006    constr:    0.0000
     atom:    3    charge:    0.2553    magn:   -0.0006    constr:    0.0000
     atom:    4    charge:    0.2553    magn:   -0.0006    constr:    0.0000
     atom:    5    charge:    5.8464    magn:   -0.0001    constr:    0.0000
     atom:    6    charge:    5.8502    magn:    0.0596    constr:    0.0000
     atom:    7    charge:    5.8502    magn:    0.0596    constr:    0.0000
     atom:    8    charge:    5.8502    magn:    0.0596    constr:    0.0000

     total cpu time spent up to now is       54.7 secs

     End of self-consistent calculation

 ------ SPIN UP ------------


          k = 0.0000 0.0000 0.0000 (192431 PWs)   bands (ev):

   -79.2718 -44.8770 -44.8770 -44.8770 -10.0213  -8.8121  -8.8121  -8.3943
     3.2595   3.2595   3.2595   4.0232   4.0232   4.0232   4.5992   4.5992
     6.0330   6.0330   6.0330   6.0410   6.0410   6.0410   7.4112   7.4112
     7.4112  11.9994  16.7695  17.7665  17.7665  17.7895  17.7895  17.7895

     occupation numbers 
     1.0000   1.0000   1.0000   1.0000   1.0000   1.0000   1.0000   1.0000
     1.0000   1.0000   1.0000   1.0000   1.0000   1.0000   1.0000   1.0000
     1.0000   1.0000   1.0000   1.0000   1.0000   1.0000   1.0000   1.0000
     1.0000   0.0000   0.0000   0.0000   0.0000   0.0000   0.0000   0.0000

          k = 0.0000 0.0000-0.5000 (192616 PWs)   bands (ev):

   -79.2718 -44.8778 -44.8770 -44.8770  -9.4067  -9.2031  -8.7656  -8.3603
     2.0516   3.0333   3.0333   4.0393   4.3541   4.3541   4.6025   4.7631
     5.2867   5.4359   5.4359   5.6386   6.5933   6.5933   7.1241   7.1241
     7.5081  15.5045  15.6348  18.8045  19.0831  19.0831  19.4446  19.9019

     occupation numbers 
     1.0000   1.0000   1.0000   1.0000   1.0000   1.0000   1.0000   1.0000
     1.0000   1.0000   1.0000   1.0000   1.0000   1.0000   1.0000   1.0000
     1.0000   1.0000   1.0000   1.0000   1.0000   1.0000   1.0000   1.0000
     1.0000   0.0000   0.0000   0.0000   0.0000   0.0000   0.0000   0.0000

          k = 0.0000-0.5000-0.5000 (192516 PWs)   bands (ev):

   -79.2718 -44.8777 -44.8777 -44.8769  -9.0454  -8.8104  -8.8104  -8.6922
     2.0216   2.1502   2.3133   3.2416   3.2416   3.9563   3.9563   5.2636
     5.4840   5.9346   6.2212   6.5590   6.5590   6.7490   6.7866   6.7866
     9.6766  16.9248  16.9248  16.9344  17.1686  19.0944  19.4004  20.0951

     occupation numbers 
     1.0000   1.0000   1.0000   1.0000   1.0000   1.0000   1.0000   1.0000
     1.0000   1.0000   1.0000   1.0000   1.0000   1.0000   1.0000   1.0000
     1.0000   1.0000   1.0000   1.0000   1.0000   1.0000   1.0000   1.0000
     1.0000   0.0000   0.0000   0.0000   0.0000   0.0000   0.0000   0.0000

          k =-0.5000-0.5000-0.5000 (192672 PWs)   bands (ev):

   -79.2718 -44.8777 -44.8777 -44.8777  -8.7459  -8.7459  -8.7459  -8.6224
     1.8012   1.8012   1.8012   2.0213   2.0213   2.3204   5.1385   5.1385
     5.1385   6.7449   6.7449   6.7449   7.2975   7.2975   7.2975   9.6723
     9.6723  15.3257  15.3257  15.3257  15.4929  19.6161  20.4464  20.4464

     occupation numbers 
     1.0000   1.0000   1.0000   1.0000   1.0000   1.0000   1.0000   1.0000
     1.0000   1.0000   1.0000   1.0000   1.0000   1.0000   1.0000   1.0000
     1.0000   1.0000   1.0000   1.0000   1.0000   1.0000   1.0000   1.0000
     1.0000   0.0000   0.0000   0.0000   0.0000   0.0000   0.0000   0.0000

 ------ SPIN DOWN ----------


          k = 0.0000 0.0000 0.0000 (192431 PWs)   bands (ev):

   -74.6204 -40.2916 -40.2916 -40.2916  -9.9269  -8.3632  -8.3423  -8.3423
     3.3710   3.3710   3.3710   6.1197   6.1197   6.1197   6.1530   6.1530
     6.1530   7.4922   7.4922   7.4922   7.5226  12.1865  12.1865  12.2786
    14.1839  14.1839  17.7833  17.7833  17.7930  18.1205  18.3678  18.3678

     occupation numbers 
     1.0000   1.0000   1.0000   1.0000   1.0000   1.0000   1.0000   1.0000
     1.0000   1.0000   1.0000   1.0000   1.0000   1.0000   1.0000   1.0000
     1.0000   1.0000   1.0000   1.0000   1.0000   0.0000   0.0000   0.0000
     0.0000   0.0000   0.0000   0.0000   0.0000   0.0000   0.0000   0.0000

          k = 0.0000 0.0000-0.5000 (192616 PWs)   bands (ev):

   -74.6204 -40.2929 -40.2915 -40.2915  -9.1835  -9.1451  -8.3073  -8.2959
     4.2829   4.4594   4.5294   4.5294   4.6280   4.8454   5.5856   5.7112
     6.5362   6.7255   6.7298   6.7298   8.1539  12.7648  13.0466  14.1981
    14.2543  15.7004  16.4482  18.8039  19.2547  19.2547  19.9629  20.1396

     occupation numbers 
     1.0000   1.0000   1.0000   1.0000   1.0000   1.0000   1.0000   1.0000
     1.0000   1.0000   1.0000   1.0000   1.0000   1.0000   1.0000   1.0000
     1.0000   1.0000   1.0000   1.0000   1.0000   0.0000   0.0000   0.0000
     0.0000   0.0000   0.0000   0.0000   0.0000   0.0000   0.0000   0.0000

          k = 0.0000-0.5000-0.5000 (192516 PWs)   bands (ev):

   -74.6204 -40.2929 -40.2929 -40.2915  -8.7091  -8.6990  -8.6990  -8.6889
     3.6402   3.7555   3.9911   3.9911   5.0132   5.3817   5.4822   5.5022
     6.1372   6.8348   6.8348   6.8349   8.9079  13.0623  13.3077  14.2519
    15.8364  17.1421  17.1421  17.2405  17.3701  19.3881  19.4040  20.3372

     occupation numbers 
     1.0000   1.0000   1.0000   1.0000   1.0000   1.0000   1.0000   1.0000
     1.0000   1.0000   1.0000   1.0000   1.0000   1.0000   1.0000   1.0000
     1.0000   1.0000   1.0000   1.0000   1.0000   0.0000   0.0000   0.0000
     0.0000   0.0000   0.0000   0.0000   0.0000   0.0000   0.0000   0.0000

          k =-0.5000-0.5000-0.5000 (192672 PWs)   bands (ev):

   -74.6204 -40.2928 -40.2928 -40.2928  -8.6337  -8.6337  -8.6337  -8.6229
     2.4063   2.7138   2.8404   2.8404   6.1330   6.1330   6.4503   6.7806
     6.7806   6.8308   6.8308   6.8308   9.2274  13.4292  13.4292  15.4888
    15.5508  15.5508  15.5508  15.8362  15.8362  20.2031  20.5629  20.5629

     occupation numbers 
     1.0000   1.0000   1.0000   1.0000   1.0000   1.0000   1.0000   1.0000
     1.0000   1.0000   1.0000   1.0000   1.0000   1.0000   1.0000   1.0000
     1.0000   1.0000   1.0000   1.0000   1.0000   0.0000   0.0000   0.0000
     0.0000   0.0000   0.0000   0.0000   0.0000   0.0000   0.0000   0.0000

     the spin up/dw Fermi energies are    11.2454   11.2454 ev

!    total energy              =    -382.02620676 Ry
     estimated scf accuracy    <          6.0E-11 Ry
     smearing contrib. (-TS)   =      -0.00000000 Ry
     internal energy E=F+TS    =    -382.02620676 Ry

     The total energy is F=E-TS. E is the sum of the following terms:
     one-electron contribution =    -239.81118922 Ry
     hartree contribution      =     146.87736590 Ry
     xc contribution           =     -58.60439509 Ry
     ewald contribution        =    -230.48798836 Ry
     Hubbard energy            =      -0.00000000 Ry

     total magnetization       =     4.00 Bohr mag/cell
     absolute magnetization    =     4.02 Bohr mag/cell

     convergence has been achieved in  17 iterations

     Forces acting on atoms (cartesian axes, Ry/au):

     atom    1 type  1   force =     0.00000000    0.00000000    0.00000000
     atom    2 type  2   force =     0.00000000    0.00000000    0.00000000
     atom    3 type  2   force =     0.00000000    0.00000000    0.00000000
     atom    4 type  2   force =     0.00000000    0.00000000    0.00000000
     atom    5 type  3   force =     0.00000000    0.00000000    0.00000000
     atom    6 type  3   force =     0.00000000    0.00000000    0.00000000
     atom    7 type  3   force =     0.00000000    0.00000000    0.00000000
     atom    8 type  3   force =     0.00000000    0.00000000    0.00000000
     The non-local contrib.  to forces
     atom    1 type  1   force =     0.00000000    0.00000000    0.00000000
     atom    2 type  2   force =     0.00000000    0.00000000    0.00000000
     atom    3 type  2   force =     0.00000000    0.00000000    0.00000000
     atom    4 type  2   force =     0.00000000    0.00000000    0.00000000
     atom    5 type  3   force =     0.00000000    0.00000000   -0.00000000
     atom    6 type  3   force =     0.00000000    0.00000000    0.00000000
     atom    7 type  3   force =     0.00000000    0.00000000    0.00000000
     atom    8 type  3   force =     0.00000000    0.00000000    0.00000000
     The ionic contribution  to forces
     atom    1 type  1   force =    -0.00000000   -0.00000000   -0.00000000
     atom    2 type  2   force =    -0.00000000    0.00000000    0.00000000
     atom    3 type  2   force =     0.00000000   -0.00000000    0.00000000
     atom    4 type  2   force =     0.00000000    0.00000000   -0.00000000
     atom    5 type  3   force =     0.00000000    0.00000000    0.00000000
     atom    6 type  3   force =     0.00000000   -0.00000000   -0.00000000
     atom    7 type  3   force =    -0.00000000    0.00000000   -0.00000000
     atom    8 type  3   force =    -0.00000000   -0.00000000    0.00000000
     The local contribution  to forces
     atom    1 type  1   force =     0.00000000    0.00000000    0.00000000
     atom    2 type  2   force =    -0.00000000    0.00000000    0.00000000
     atom    3 type  2   force =     0.00000000   -0.00000000    0.00000000
     atom    4 type  2   force =     0.00000000    0.00000000   -0.00000000
     atom    5 type  3   force =     0.00000000    0.00000000    0.00000000
     atom    6 type  3   force =     0.00000000    0.00000000    0.00000000
     atom    7 type  3   force =     0.00000000    0.00000000    0.00000000
     atom    8 type  3   force =     0.00000000    0.00000000    0.00000000
     The core correction contribution to forces
     atom    1 type  1   force =     0.00000000    0.00000000    0.00000000
     atom    2 type  2   force =     0.00000000    0.00000000    0.00000000
     atom    3 type  2   force =     0.00000000    0.00000000    0.00000000
     atom    4 type  2   force =     0.00000000    0.00000000    0.00000000
     atom    5 type  3   force =     0.00000000    0.00000000    0.00000000
     atom    6 type  3   force =     0.00000000    0.00000000    0.00000000
     atom    7 type  3   force =     0.00000000    0.00000000    0.00000000
     atom    8 type  3   force =     0.00000000    0.00000000    0.00000000
     The Hubbard contrib.    to forces
     atom    1 type  1   force =     0.00000000    0.00000000    0.00000000
     atom    2 type  2   force =     0.00000000    0.00000000    0.00000000
     atom    3 type  2   force =     0.00000000    0.00000000    0.00000000
     atom    4 type  2   force =     0.00000000    0.00000000    0.00000000
     atom    5 type  3   force =     0.00000000    0.00000000    0.00000000
     atom    6 type  3   force =     0.00000000    0.00000000    0.00000000
     atom    7 type  3   force =     0.00000000    0.00000000    0.00000000
     atom    8 type  3   force =     0.00000000    0.00000000    0.00000000
     The SCF correction term to forces
     atom    1 type  1   force =    -0.00000000   -0.00000000    0.00000000
     atom    2 type  2   force =     0.00000000   -0.00000000   -0.00000000
     atom    3 type  2   force =     0.00000000    0.00000000   -0.00000000
     atom    4 type  2   force =     0.00000000    0.00000000   -0.00000000
     atom    5 type  3   force =     0.00000000   -0.00000000   -0.00000000
     atom    6 type  3   force =     0.00000000   -0.00000000    0.00000000
     atom    7 type  3   force =    -0.00000000   -0.00000000    0.00000000
     atom    8 type  3   force =     0.00000000   -0.00000000    0.00000000

     Total force =     0.000000     Total SCF correction =     0.000000


     Computing stress (Cartesian axis) and pressure

          total   stress  (Ry/bohr**3)                   (kbar)     P=      181.25
   0.00123213   0.00000000   0.00000000          181.25        0.00        0.00
   0.00000000   0.00123213   0.00000000            0.00      181.25        0.00
   0.00000000   0.00000000   0.00123213            0.00        0.00      181.25

     kinetic stress (kbar)  48456.57      0.00      0.00
                                0.00  48456.57      0.00
                                0.00      0.00  48456.57

     local   stress (kbar) -16720.78      0.00     -0.00
                                0.00 -16720.78     -0.00
                               -0.00     -0.00 -16720.78

     nonloc. stress (kbar) -18008.12      0.00      0.00
                                0.00 -18008.12      0.00
                                0.00      0.00 -18008.12

     hartree stress (kbar)  14292.75     -0.00      0.00
                               -0.00  14292.75      0.00
                                0.00      0.00  14292.75

     exc-cor stress (kbar)  -5417.72     -0.00     -0.00
                               -0.00  -5417.72     -0.00
                               -0.00     -0.00  -5417.72

     corecor stress (kbar)      0.00      0.00      0.00
                                0.00      0.00      0.00
                                0.00      0.00      0.00

     ewald   stress (kbar) -22428.97      0.00     -0.00
                                0.00 -22428.97      0.00
                               -0.00      0.00 -22428.97

     hubbard stress (kbar)      7.53      0.00      0.00
                                0.00      7.53      0.00
                                0.00      0.00      7.53

     DFT-D   stress (kbar)      0.00      0.00      0.00
                                0.00      0.00      0.00
                                0.00      0.00      0.00

     XDM     stress (kbar)      0.00      0.00      0.00
                                0.00      0.00      0.00
                                0.00      0.00      0.00

     dft-nl  stress (kbar)      0.00      0.00      0.00
                                0.00      0.00      0.00
                                0.00      0.00      0.00

     TS-vdW  stress (kbar)      0.00      0.00      0.00
                                0.00      0.00      0.00
                                0.00      0.00      0.00



     Writing output data file pwscf_output/pwscf.save/
 
     init_run     :      2.13s CPU      2.44s WALL (       1 calls)
     electrons    :     49.45s CPU     52.17s WALL (       1 calls)
     forces       :      0.27s CPU      0.27s WALL (       1 calls)
     stress       :      0.99s CPU      1.01s WALL (       1 calls)

     Called by init_run:
     wfcinit      :      1.33s CPU      1.47s WALL (       1 calls)
     wfcinit:atom :      0.03s CPU      0.03s WALL (       8 calls)
     wfcinit:wfcr :      1.17s CPU      1.28s WALL (       8 calls)
     potinit      :      0.18s CPU      0.26s WALL (       1 calls)
     hinit0       :      0.09s CPU      0.16s WALL (       1 calls)

     Called by electrons:
     c_bands      :     40.39s CPU     40.89s WALL (      17 calls)
     sum_band     :      6.49s CPU      6.58s WALL (      17 calls)
     v_of_rho     :      1.85s CPU      2.00s WALL (      18 calls)
     v_h          :      0.07s CPU      0.08s WALL (      18 calls)
     v_xc         :      1.78s CPU      1.92s WALL (      18 calls)
     mix_rho      :      0.70s CPU      0.74s WALL (      17 calls)

     Called by c_bands:
     init_us_2    :      0.35s CPU      0.36s WALL (     320 calls)
     cegterg      :     39.57s CPU     39.88s WALL (     136 calls)

     Called by sum_band:
     sum_band:wei :      0.00s CPU      0.00s WALL (      17 calls)
     sum_band:loo :      5.92s CPU      5.97s WALL (      17 calls)
     sum_band:buf :      0.19s CPU      0.19s WALL (     136 calls)
     sum_band:ini :      0.15s CPU      0.15s WALL (     136 calls)

     Called by *egterg:
     cdiaghg      :      2.69s CPU      2.77s WALL (     675 calls)
     cegterg:over :      3.11s CPU      3.12s WALL (     539 calls)
     cegterg:upda :      2.53s CPU      2.54s WALL (     539 calls)
     cegterg:last :      2.39s CPU      2.41s WALL (     307 calls)
     cdiaghg:chol :      0.19s CPU      0.23s WALL (     675 calls)
     cdiaghg:inve :      0.03s CPU      0.04s WALL (     675 calls)
     cdiaghg:para :      0.18s CPU      0.18s WALL (    1350 calls)
     h_psi        :     28.88s CPU     29.18s WALL (     683 calls)
     g_psi        :      0.13s CPU      0.13s WALL (     539 calls)

     Called by h_psi:
     h_psi:calbec :      0.80s CPU      0.81s WALL (     683 calls)
     vloc_psi     :     26.10s CPU     26.36s WALL (     683 calls)
     add_vuspsi   :      0.97s CPU      0.99s WALL (     683 calls)
     vhpsi        :      0.59s CPU      0.60s WALL (     683 calls)

     General routines
     calbec       :      1.36s CPU      1.38s WALL (    1654 calls)
     fft          :      0.83s CPU      1.02s WALL (     351 calls)
     ffts         :      0.07s CPU      0.08s WALL (      34 calls)
     fftw         :     26.69s CPU     26.95s WALL (   28502 calls)
     davcio       :      0.00s CPU      0.00s WALL (       8 calls)
 
     Parallel routines
     fft_scatt_xy :      3.91s CPU      3.95s WALL (   28887 calls)
     fft_scatt_yz :     13.73s CPU     13.99s WALL (   28887 calls)

     Hubbard U routines
     new_ns       :      0.24s CPU      0.25s WALL (      17 calls)
     new_ns       :      0.24s CPU      0.25s WALL (      17 calls)
     vhpsi        :      0.59s CPU      0.60s WALL (     683 calls)
     force_hub    :      0.10s CPU      0.10s WALL (       1 calls)
     stres_hub    :      0.33s CPU      0.34s WALL (       1 calls)
 
     PWSCF        :     53.45s CPU   1m40.95s WALL

 
   This run was terminated on:  11:22:41  22Nov2021            

=------------------------------------------------------------------------------=
   JOB DONE.
=------------------------------------------------------------------------------=
