
     Program PWSCF v.6.3MaX starts on 17Sep2020 at 13:44:28 

     This program is part of the open-source Quantum ESPRESSO suite
     for quantum simulation of materials; please cite
         "P. Giannozzi et al., J. Phys.:Condens. Matter 21 395502 (2009);
         "P. Giannozzi et al., J. Phys.:Condens. Matter 29 465901 (2017);
          URL http://www.quantum-espresso.org", 
     in publications or presentations arising from this work. More details at
     http://www.quantum-espresso.org/quote

     Parallel version (MPI), running on    64 processors

     MPI processes distributed on     4 nodes
     R & G space division:  proc/nbgrp/npool/nimage =      64
     Reading input from scf.in

     Current dimensions of program PWSCF are:
     Max number of different atomic species (ntypx) = 10
     Max number of k-points (npk) =  40000
     Max angular momentum in pseudopotentials (lmaxx) =  3

     IMPORTANT: XC functional enforced from input :
     Exchange-correlation      = LDA ( 1  1  0  0 0 0)
     Any further DFT definition will be discarded
     Please, verify this is what you really want


     Subspace diagonalization in iterative solution of the eigenvalue problem:
     one sub-group per band group will be used
     scalapack distributed-memory algorithm (size of sub-group:  5*  5 procs)

 
     Parallelization info
     --------------------
     sticks:   dense  smooth     PW     G-vecs:    dense   smooth      PW
     Min         156     156     41               131778   131778   17785
     Max         157     157     44               131846   131846   17845
     Sum        9985    9985   2635              8436261  8436261 1139745
 


     bravais-lattice index     =            0
     lattice parameter (alat)  =      10.1667  a.u.
     unit-cell volume          =    9537.1118 (a.u.)^3
     number of atoms/cell      =           40
     number of atomic types    =            3
     number of electrons       =       416.00
     number of Kohn-Sham states=          250
     kinetic-energy cutoff     =     350.0000  Ry
     charge density cutoff     =    1400.0000  Ry
     convergence threshold     =      1.0E-07
     mixing beta               =       0.4000
     number of iterations used =            8  plain     mixing
     Exchange-correlation      = LDA ( 1  1  0  0 0 0)

     celldm(1)=  10.166727  celldm(2)=   0.000000  celldm(3)=   0.000000
     celldm(4)=   0.000000  celldm(5)=   0.000000  celldm(6)=   0.000000

     crystal axes: (cart. coord. in units of alat)
               a(1) = (   1.000000   0.000000   0.000000 )  
               a(2) = (  -0.500000   0.866025   0.000000 )  
               a(3) = (   0.000000   0.000000  10.479554 )  

     reciprocal axes: (cart. coord. in units 2 pi/alat)
               b(1) = (  1.000000  0.577350  0.000000 )  
               b(2) = (  0.000000  1.154701  0.000000 )  
               b(3) = (  0.000000  0.000000  0.095424 )  


     PseudoPot. # 1 for Co read from file:
     ./Co.opt.upf
     MD5 check sum: cbea422ea0772e228e39f0fc3ccfb1ba
     Pseudo is Norm-conserving, Zval = 17.0
     Generated by new atomic code, or converted to UPF format
     Using radial grid of 1161 points,  2 beta functions with: 
                l(1) =   0
                l(2) =   2

     PseudoPot. # 2 for S  read from file:
     ./S.ccECP.upf
     MD5 check sum: ca522fbba48e0cacfc91d9902dc93479
     Pseudo is Norm-conserving, Zval =  6.0
     Generated by new atomic code, or converted to UPF format
     Using radial grid of 1147 points,  2 beta functions with: 
                l(1) =   0
                l(2) =   2

     PseudoPot. # 3 for Sn read from file:
     ./Sn.BFD.upf
     MD5 check sum: a557943cfed07e7454246d073dfbcf2b
     Pseudo is Norm-conserving, Zval =  4.0
     Generated by new atomic code, or converted to UPF format
     Using radial grid of 1177 points,  2 beta functions with: 
                l(1) =   1
                l(2) =   2

     atomic species   valence    mass     pseudopotential
        Co            17.00    58.93300     Co( 1.00)
        S              6.00    32.06400     S ( 1.00)
        Sn             4.00   118.69000     Sn( 1.00)

     Starting magnetic structure 
     atomic species   magnetization
        Co           1.000
        S            0.000
        Sn           0.000


     Simplified LDA+U calculation (l_max = 2) with parameters (eV):
     atomic species    L          U    alpha       J0     beta
        Co             2     5.0000   0.0000   0.0000   0.0000



     No symmetry found


                                    s                        frac. trans.

      isym =  1     identity                                     

 cryst.   s( 1) = (     1          0          0      )
                  (     0          1          0      )
                  (     0          0          1      )

 cart.    s( 1) = (  1.0000000  0.0000000  0.0000000 )
                  (  0.0000000  1.0000000  0.0000000 )
                  (  0.0000000  0.0000000  1.0000000 )


   Cartesian axes

     site n.     atom                  positions (alat units)
         1           Sn  tau(   1) = (   0.0000000   0.0000000   0.0000000  )
         2           Co  tau(   2) = (   0.2500000   0.4330127   0.0000000  )
         3           Co  tau(   3) = (   0.5000000   0.0000000   0.0000000  )
         4           Co  tau(   4) = (  -0.2500000   0.4330127   0.0000000  )
         5           S   tau(   5) = (   0.5000000   0.2886751   0.2901146  )
         6           Sn  tau(   6) = (   0.0000000   0.5773503   0.4086123  )
         7           S   tau(   7) = (   0.0000000   0.0000000   0.5271097  )
         8           Co  tau(   8) = (   0.0000001   0.2886751   0.8172242  )
         9           Co  tau(   9) = (   0.2500000   0.7216879   0.8172242  )
        10           Sn  tau(  10) = (   0.5000000   0.2886751   0.8172242  )
        11           Co  tau(  11) = (  -0.2500000   0.7216879   0.8172242  )
        12           S   tau(  12) = (   0.0000000   0.5773503   1.1073389  )
        13           Sn  tau(  13) = (   0.0000000   0.0000000   1.2258363  )
        14           S   tau(  14) = (   0.5000000   0.2886751   1.3443339  )
        15           Co  tau(  15) = (   0.2500000   0.1443376   1.6344485  )
        16           Co  tau(  16) = (   0.5000000   0.5773503   1.6344485  )
        17           Co  tau(  17) = (   0.7500000   0.1443376   1.6344485  )
        18           Sn  tau(  18) = (   0.0000000   0.5773503   1.6344485  )
        19           S   tau(  19) = (   0.0000000   0.0000000   1.9245630  )
        20           Sn  tau(  20) = (   0.5000000   0.2886751   2.0430607  )
        21           S   tau(  21) = (   0.0000000   0.5773503   2.1615581  )
        22           Sn  tau(  22) = (   0.0000000   0.0000000   2.4516727  )
        23           Co  tau(  23) = (   0.2500000   0.4330127   2.4516727  )
        24           Co  tau(  24) = (   0.5000000   0.0000000   2.4516727  )
        25           Co  tau(  25) = (  -0.2500000   0.4330127   2.4516727  )
        26           S   tau(  26) = (   0.5000000   0.2886751   2.7417874  )
        27           Sn  tau(  27) = (   0.0000000   0.5773503   2.8602851  )
        28           S   tau(  28) = (   0.0000000   0.0000000   2.9787825  )
        29           Co  tau(  29) = (   0.0000001   0.2886751   3.2688970  )
        30           Co  tau(  30) = (   0.2500000   0.7216879   3.2688970  )
        31           Sn  tau(  31) = (   0.5000000   0.2886751   3.2688970  )
        32           Co  tau(  32) = (  -0.2500000   0.7216879   3.2688970  )
        33           S   tau(  33) = (   0.0000000   0.5773503   3.5590115  )
        34           Sn  tau(  34) = (   0.0000000   0.0000000   3.6775092  )
        35           S   tau(  35) = (   0.5000000   0.2886751   3.7960066  )
        36           Co  tau(  36) = (   0.2500000   0.1443376   4.0861211  )
        37           Co  tau(  37) = (   0.5000000   0.5773503   4.0861211  )
        38           Co  tau(  38) = (   0.7500000   0.1443376   4.0861211  )
        39           Sn  tau(  39) = (   0.0000000   0.5773503   4.0861211  )
        40           S   tau(  40) = (   0.0500000   0.6062178   4.3722802  )

   Crystallographic axes

     site n.     atom                  positions (cryst. coord.)
         1           Sn  tau(   1) = (  0.0000000  0.0000000  0.0000000  )
         2           Co  tau(   2) = (  0.5000000  0.5000000  0.0000000  )
         3           Co  tau(   3) = (  0.5000000  0.0000000  0.0000000  )
         4           Co  tau(   4) = (  0.0000000  0.5000000  0.0000000  )
         5           S   tau(   5) = (  0.6666667  0.3333333  0.0276839  )
         6           Sn  tau(   6) = (  0.3333334  0.6666667  0.0389914  )
         7           S   tau(   7) = (  0.0000000  0.0000000  0.0502989  )
         8           Co  tau(   8) = (  0.1666667  0.3333333  0.0779827  )
         9           Co  tau(   9) = (  0.6666667  0.8333334  0.0779827  )
        10           Sn  tau(  10) = (  0.6666667  0.3333333  0.0779827  )
        11           Co  tau(  11) = (  0.1666667  0.8333334  0.0779827  )
        12           S   tau(  12) = (  0.3333334  0.6666667  0.1056666  )
        13           Sn  tau(  13) = (  0.0000000  0.0000000  0.1169741  )
        14           S   tau(  14) = (  0.6666667  0.3333333  0.1282816  )
        15           Co  tau(  15) = (  0.3333334  0.1666668  0.1559655  )
        16           Co  tau(  16) = (  0.8333334  0.6666667  0.1559655  )
        17           Co  tau(  17) = (  0.8333334  0.1666667  0.1559655  )
        18           Sn  tau(  18) = (  0.3333334  0.6666667  0.1559655  )
        19           S   tau(  19) = (  0.0000000  0.0000000  0.1836493  )
        20           Sn  tau(  20) = (  0.6666667  0.3333333  0.1949569  )
        21           S   tau(  21) = (  0.3333334  0.6666667  0.2062643  )
        22           Sn  tau(  22) = (  0.0000000  0.0000000  0.2339482  )
        23           Co  tau(  23) = (  0.5000000  0.5000000  0.2339482  )
        24           Co  tau(  24) = (  0.5000000  0.0000000  0.2339482  )
        25           Co  tau(  25) = (  0.0000000  0.5000000  0.2339482  )
        26           S   tau(  26) = (  0.6666667  0.3333333  0.2616321  )
        27           Sn  tau(  27) = (  0.3333334  0.6666667  0.2729396  )
        28           S   tau(  28) = (  0.0000000  0.0000000  0.2842471  )
        29           Co  tau(  29) = (  0.1666667  0.3333333  0.3119309  )
        30           Co  tau(  30) = (  0.6666667  0.8333334  0.3119309  )
        31           Sn  tau(  31) = (  0.6666667  0.3333333  0.3119309  )
        32           Co  tau(  32) = (  0.1666667  0.8333334  0.3119309  )
        33           S   tau(  33) = (  0.3333334  0.6666667  0.3396148  )
        34           Sn  tau(  34) = (  0.0000000  0.0000000  0.3509223  )
        35           S   tau(  35) = (  0.6666667  0.3333333  0.3622298  )
        36           Co  tau(  36) = (  0.3333334  0.1666668  0.3899137  )
        37           Co  tau(  37) = (  0.8333334  0.6666667  0.3899137  )
        38           Co  tau(  38) = (  0.8333334  0.1666667  0.3899137  )
        39           Sn  tau(  39) = (  0.3333334  0.6666667  0.3899137  )
        40           S   tau(  40) = (  0.4000000  0.7000000  0.4172201  )

     number of k points=    13  Fermi-Dirac smearing, width (Ry)=  0.0400
                       cart. coord. in units 2pi/alat
        k(    1) = (   0.0000000   0.0000000   0.0000000), wk =   0.0400000
        k(    2) = (   0.0000000   0.2309401   0.0000000), wk =   0.0800000
        k(    3) = (   0.0000000   0.4618802   0.0000000), wk =   0.0800000
        k(    4) = (   0.2000000   0.1154701   0.0000000), wk =   0.0800000
        k(    5) = (   0.2000000   0.3464102   0.0000000), wk =   0.0800000
        k(    6) = (   0.2000000   0.5773503   0.0000000), wk =   0.0800000
        k(    7) = (   0.2000000  -0.3464102   0.0000000), wk =   0.0800000
        k(    8) = (   0.2000000  -0.1154701   0.0000000), wk =   0.0800000
        k(    9) = (   0.4000000   0.2309401   0.0000000), wk =   0.0800000
        k(   10) = (   0.4000000   0.4618802   0.0000000), wk =   0.0800000
        k(   11) = (   0.4000000   0.6928203   0.0000000), wk =   0.0800000
        k(   12) = (   0.4000000  -0.2309401   0.0000000), wk =   0.0800000
        k(   13) = (   0.4000000   0.0000000   0.0000000), wk =   0.0800000

                       cryst. coord.
        k(    1) = (   0.0000000   0.0000000   0.0000000), wk =   0.0400000
        k(    2) = (   0.0000000   0.2000000   0.0000000), wk =   0.0800000
        k(    3) = (   0.0000000   0.4000000   0.0000000), wk =   0.0800000
        k(    4) = (   0.2000000   0.0000000   0.0000000), wk =   0.0800000
        k(    5) = (   0.2000000   0.2000000   0.0000000), wk =   0.0800000
        k(    6) = (   0.2000000   0.4000000   0.0000000), wk =   0.0800000
        k(    7) = (   0.2000000  -0.4000000   0.0000000), wk =   0.0800000
        k(    8) = (   0.2000000  -0.2000000   0.0000000), wk =   0.0800000
        k(    9) = (   0.4000000   0.0000000   0.0000000), wk =   0.0800000
        k(   10) = (   0.4000000   0.2000000   0.0000000), wk =   0.0800000
        k(   11) = (   0.4000000   0.4000000   0.0000000), wk =   0.0800000
        k(   12) = (   0.4000000  -0.4000000   0.0000000), wk =   0.0800000
        k(   13) = (   0.4000000  -0.2000000   0.0000000), wk =   0.0800000

     Dense  grid:  8436261 G-vectors     FFT dimensions: ( 125, 125,1280)

     Dynamical RAM for                 wfc:      62.85 MB

     Dynamical RAM for     wfc (w. buffer):    1697.08 MB

     Dynamical RAM for             U proj.:      22.63 MB

     Dynamical RAM for  U proj. (w. buff.):     610.95 MB

     Dynamical RAM for           str. fact:       6.03 MB

     Dynamical RAM for           local pot:       0.00 MB

     Dynamical RAM for          nlocal pot:      65.87 MB

     Dynamical RAM for                qrad:       2.08 MB

     Dynamical RAM for          rho,v,vnew:      26.37 MB

     Dynamical RAM for               rhoin:       8.79 MB

     Dynamical RAM for            rho*nmix:      64.37 MB

     Dynamical RAM for           G-vectors:       8.55 MB

     Dynamical RAM for          h,s,v(r/c):       1.83 MB

     Dynamical RAM for          <psi|beta>:       1.00 MB

     Dynamical RAM for                 psi:     251.42 MB

     Dynamical RAM for                hpsi:     251.42 MB

     Dynamical RAM for      wfcinit/wfcrot:     183.99 MB

     Estimated static dynamical RAM per process >       2.45 GB

     Estimated max dynamical RAM per process >       2.95 GB

     Estimated total dynamical RAM >     188.63 GB
     Generating pointlists ...
     new r_m :   0.1688 (alat units)  1.7164 (a.u.) for type    1
     new r_m :   0.1204 (alat units)  1.2243 (a.u.) for type    2
     new r_m :   0.1204 (alat units)  1.2243 (a.u.) for type    3

     Initial potential from superposition of free atoms
     Check: negative starting charge=(component1):   -0.001230
     Check: negative starting charge=(component2):   -0.000552

     starting charge  323.02857, renormalised to  416.00000

     negative rho (up, down):  1.584E-03 7.111E-04
 --- in v_hubbard ---
Hubbard energy    3.9689
 -------
     Number of +U iterations with fixed ns =  0
     Starting occupations:
 --- enter write_ns ---
 LDA+U parameters:
U( 1)     =  5.00000000
alpha( 1) =  0.00000000
atom    2   Tr[ns(na)] (up, down, total) =   5.00000  2.00000  7.00000
   spin  1
    eigenvalues: 
  1.000  1.000  1.000  1.000  1.000
    eigenvectors:
  1.000  0.000  0.000  0.000  0.000
  0.000  1.000  0.000  0.000  0.000
  0.000  0.000  1.000  0.000  0.000
  0.000  0.000  0.000  1.000  0.000
  0.000  0.000  0.000  0.000  1.000
    occupations:
  1.000  0.000  0.000  0.000  0.000
  0.000  1.000  0.000  0.000  0.000
  0.000  0.000  1.000  0.000  0.000
  0.000  0.000  0.000  1.000  0.000
  0.000  0.000  0.000  0.000  1.000
   spin  2
    eigenvalues: 
  0.400  0.400  0.400  0.400  0.400
    eigenvectors:
  1.000  0.000  0.000  0.000  0.000
  0.000  1.000  0.000  0.000  0.000
  0.000  0.000  1.000  0.000  0.000
  0.000  0.000  0.000  1.000  0.000
  0.000  0.000  0.000  0.000  1.000
    occupations:
  0.400  0.000  0.000  0.000  0.000
  0.000  0.400  0.000  0.000  0.000
  0.000  0.000  0.400  0.000  0.000
  0.000  0.000  0.000  0.400  0.000
  0.000  0.000  0.000  0.000  0.400
atomic mag. moment =     3.000000
atom    3   Tr[ns(na)] (up, down, total) =   5.00000  2.00000  7.00000
   spin  1
    eigenvalues: 
  1.000  1.000  1.000  1.000  1.000
    eigenvectors:
  1.000  0.000  0.000  0.000  0.000
  0.000  1.000  0.000  0.000  0.000
  0.000  0.000  1.000  0.000  0.000
  0.000  0.000  0.000  1.000  0.000
  0.000  0.000  0.000  0.000  1.000
    occupations:
  1.000  0.000  0.000  0.000  0.000
  0.000  1.000  0.000  0.000  0.000
  0.000  0.000  1.000  0.000  0.000
  0.000  0.000  0.000  1.000  0.000
  0.000  0.000  0.000  0.000  1.000
   spin  2
    eigenvalues: 
  0.400  0.400  0.400  0.400  0.400
    eigenvectors:
  1.000  0.000  0.000  0.000  0.000
  0.000  1.000  0.000  0.000  0.000
  0.000  0.000  1.000  0.000  0.000
  0.000  0.000  0.000  1.000  0.000
  0.000  0.000  0.000  0.000  1.000
    occupations:
  0.400  0.000  0.000  0.000  0.000
  0.000  0.400  0.000  0.000  0.000
  0.000  0.000  0.400  0.000  0.000
  0.000  0.000  0.000  0.400  0.000
  0.000  0.000  0.000  0.000  0.400
atomic mag. moment =     3.000000
atom    4   Tr[ns(na)] (up, down, total) =   5.00000  2.00000  7.00000
   spin  1
    eigenvalues: 
  1.000  1.000  1.000  1.000  1.000
    eigenvectors:
  1.000  0.000  0.000  0.000  0.000
  0.000  1.000  0.000  0.000  0.000
  0.000  0.000  1.000  0.000  0.000
  0.000  0.000  0.000  1.000  0.000
  0.000  0.000  0.000  0.000  1.000
    occupations:
  1.000  0.000  0.000  0.000  0.000
  0.000  1.000  0.000  0.000  0.000
  0.000  0.000  1.000  0.000  0.000
  0.000  0.000  0.000  1.000  0.000
  0.000  0.000  0.000  0.000  1.000
   spin  2
    eigenvalues: 
  0.400  0.400  0.400  0.400  0.400
    eigenvectors:
  1.000  0.000  0.000  0.000  0.000
  0.000  1.000  0.000  0.000  0.000
  0.000  0.000  1.000  0.000  0.000
  0.000  0.000  0.000  1.000  0.000
  0.000  0.000  0.000  0.000  1.000
    occupations:
  0.400  0.000  0.000  0.000  0.000
  0.000  0.400  0.000  0.000  0.000
  0.000  0.000  0.400  0.000  0.000
  0.000  0.000  0.000  0.400  0.000
  0.000  0.000  0.000  0.000  0.400
atomic mag. moment =     3.000000
atom    8   Tr[ns(na)] (up, down, total) =   5.00000  2.00000  7.00000
   spin  1
    eigenvalues: 
  1.000  1.000  1.000  1.000  1.000
    eigenvectors:
  1.000  0.000  0.000  0.000  0.000
  0.000  1.000  0.000  0.000  0.000
  0.000  0.000  1.000  0.000  0.000
  0.000  0.000  0.000  1.000  0.000
  0.000  0.000  0.000  0.000  1.000
    occupations:
  1.000  0.000  0.000  0.000  0.000
  0.000  1.000  0.000  0.000  0.000
  0.000  0.000  1.000  0.000  0.000
  0.000  0.000  0.000  1.000  0.000
  0.000  0.000  0.000  0.000  1.000
   spin  2
    eigenvalues: 
  0.400  0.400  0.400  0.400  0.400
    eigenvectors:
  1.000  0.000  0.000  0.000  0.000
  0.000  1.000  0.000  0.000  0.000
  0.000  0.000  1.000  0.000  0.000
  0.000  0.000  0.000  1.000  0.000
  0.000  0.000  0.000  0.000  1.000
    occupations:
  0.400  0.000  0.000  0.000  0.000
  0.000  0.400  0.000  0.000  0.000
  0.000  0.000  0.400  0.000  0.000
  0.000  0.000  0.000  0.400  0.000
  0.000  0.000  0.000  0.000  0.400
atomic mag. moment =     3.000000
atom    9   Tr[ns(na)] (up, down, total) =   5.00000  2.00000  7.00000
   spin  1
    eigenvalues: 
  1.000  1.000  1.000  1.000  1.000
    eigenvectors:
  1.000  0.000  0.000  0.000  0.000
  0.000  1.000  0.000  0.000  0.000
  0.000  0.000  1.000  0.000  0.000
  0.000  0.000  0.000  1.000  0.000
  0.000  0.000  0.000  0.000  1.000
    occupations:
  1.000  0.000  0.000  0.000  0.000
  0.000  1.000  0.000  0.000  0.000
  0.000  0.000  1.000  0.000  0.000
  0.000  0.000  0.000  1.000  0.000
  0.000  0.000  0.000  0.000  1.000
   spin  2
    eigenvalues: 
  0.400  0.400  0.400  0.400  0.400
    eigenvectors:
  1.000  0.000  0.000  0.000  0.000
  0.000  1.000  0.000  0.000  0.000
  0.000  0.000  1.000  0.000  0.000
  0.000  0.000  0.000  1.000  0.000
  0.000  0.000  0.000  0.000  1.000
    occupations:
  0.400  0.000  0.000  0.000  0.000
  0.000  0.400  0.000  0.000  0.000
  0.000  0.000  0.400  0.000  0.000
  0.000  0.000  0.000  0.400  0.000
  0.000  0.000  0.000  0.000  0.400
atomic mag. moment =     3.000000
atom   11   Tr[ns(na)] (up, down, total) =   5.00000  2.00000  7.00000
   spin  1
    eigenvalues: 
  1.000  1.000  1.000  1.000  1.000
    eigenvectors:
  1.000  0.000  0.000  0.000  0.000
  0.000  1.000  0.000  0.000  0.000
  0.000  0.000  1.000  0.000  0.000
  0.000  0.000  0.000  1.000  0.000
  0.000  0.000  0.000  0.000  1.000
    occupations:
  1.000  0.000  0.000  0.000  0.000
  0.000  1.000  0.000  0.000  0.000
  0.000  0.000  1.000  0.000  0.000
  0.000  0.000  0.000  1.000  0.000
  0.000  0.000  0.000  0.000  1.000
   spin  2
    eigenvalues: 
  0.400  0.400  0.400  0.400  0.400
    eigenvectors:
  1.000  0.000  0.000  0.000  0.000
  0.000  1.000  0.000  0.000  0.000
  0.000  0.000  1.000  0.000  0.000
  0.000  0.000  0.000  1.000  0.000
  0.000  0.000  0.000  0.000  1.000
    occupations:
  0.400  0.000  0.000  0.000  0.000
  0.000  0.400  0.000  0.000  0.000
  0.000  0.000  0.400  0.000  0.000
  0.000  0.000  0.000  0.400  0.000
  0.000  0.000  0.000  0.000  0.400
atomic mag. moment =     3.000000
atom   15   Tr[ns(na)] (up, down, total) =   5.00000  2.00000  7.00000
   spin  1
    eigenvalues: 
  1.000  1.000  1.000  1.000  1.000
    eigenvectors:
  1.000  0.000  0.000  0.000  0.000
  0.000  1.000  0.000  0.000  0.000
  0.000  0.000  1.000  0.000  0.000
  0.000  0.000  0.000  1.000  0.000
  0.000  0.000  0.000  0.000  1.000
    occupations:
  1.000  0.000  0.000  0.000  0.000
  0.000  1.000  0.000  0.000  0.000
  0.000  0.000  1.000  0.000  0.000
  0.000  0.000  0.000  1.000  0.000
  0.000  0.000  0.000  0.000  1.000
   spin  2
    eigenvalues: 
  0.400  0.400  0.400  0.400  0.400
    eigenvectors:
  1.000  0.000  0.000  0.000  0.000
  0.000  1.000  0.000  0.000  0.000
  0.000  0.000  1.000  0.000  0.000
  0.000  0.000  0.000  1.000  0.000
  0.000  0.000  0.000  0.000  1.000
    occupations:
  0.400  0.000  0.000  0.000  0.000
  0.000  0.400  0.000  0.000  0.000
  0.000  0.000  0.400  0.000  0.000
  0.000  0.000  0.000  0.400  0.000
  0.000  0.000  0.000  0.000  0.400
atomic mag. moment =     3.000000
atom   16   Tr[ns(na)] (up, down, total) =   5.00000  2.00000  7.00000
   spin  1
    eigenvalues: 
  1.000  1.000  1.000  1.000  1.000
    eigenvectors:
  1.000  0.000  0.000  0.000  0.000
  0.000  1.000  0.000  0.000  0.000
  0.000  0.000  1.000  0.000  0.000
  0.000  0.000  0.000  1.000  0.000
  0.000  0.000  0.000  0.000  1.000
    occupations:
  1.000  0.000  0.000  0.000  0.000
  0.000  1.000  0.000  0.000  0.000
  0.000  0.000  1.000  0.000  0.000
  0.000  0.000  0.000  1.000  0.000
  0.000  0.000  0.000  0.000  1.000
   spin  2
    eigenvalues: 
  0.400  0.400  0.400  0.400  0.400
    eigenvectors:
  1.000  0.000  0.000  0.000  0.000
  0.000  1.000  0.000  0.000  0.000
  0.000  0.000  1.000  0.000  0.000
  0.000  0.000  0.000  1.000  0.000
  0.000  0.000  0.000  0.000  1.000
    occupations:
  0.400  0.000  0.000  0.000  0.000
  0.000  0.400  0.000  0.000  0.000
  0.000  0.000  0.400  0.000  0.000
  0.000  0.000  0.000  0.400  0.000
  0.000  0.000  0.000  0.000  0.400
atomic mag. moment =     3.000000
atom   17   Tr[ns(na)] (up, down, total) =   5.00000  2.00000  7.00000
   spin  1
    eigenvalues: 
  1.000  1.000  1.000  1.000  1.000
    eigenvectors:
  1.000  0.000  0.000  0.000  0.000
  0.000  1.000  0.000  0.000  0.000
  0.000  0.000  1.000  0.000  0.000
  0.000  0.000  0.000  1.000  0.000
  0.000  0.000  0.000  0.000  1.000
    occupations:
  1.000  0.000  0.000  0.000  0.000
  0.000  1.000  0.000  0.000  0.000
  0.000  0.000  1.000  0.000  0.000
  0.000  0.000  0.000  1.000  0.000
  0.000  0.000  0.000  0.000  1.000
   spin  2
    eigenvalues: 
  0.400  0.400  0.400  0.400  0.400
    eigenvectors:
  1.000  0.000  0.000  0.000  0.000
  0.000  1.000  0.000  0.000  0.000
  0.000  0.000  1.000  0.000  0.000
  0.000  0.000  0.000  1.000  0.000
  0.000  0.000  0.000  0.000  1.000
    occupations:
  0.400  0.000  0.000  0.000  0.000
  0.000  0.400  0.000  0.000  0.000
  0.000  0.000  0.400  0.000  0.000
  0.000  0.000  0.000  0.400  0.000
  0.000  0.000  0.000  0.000  0.400
atomic mag. moment =     3.000000
atom   23   Tr[ns(na)] (up, down, total) =   5.00000  2.00000  7.00000
   spin  1
    eigenvalues: 
  1.000  1.000  1.000  1.000  1.000
    eigenvectors:
  1.000  0.000  0.000  0.000  0.000
  0.000  1.000  0.000  0.000  0.000
  0.000  0.000  1.000  0.000  0.000
  0.000  0.000  0.000  1.000  0.000
  0.000  0.000  0.000  0.000  1.000
    occupations:
  1.000  0.000  0.000  0.000  0.000
  0.000  1.000  0.000  0.000  0.000
  0.000  0.000  1.000  0.000  0.000
  0.000  0.000  0.000  1.000  0.000
  0.000  0.000  0.000  0.000  1.000
   spin  2
    eigenvalues: 
  0.400  0.400  0.400  0.400  0.400
    eigenvectors:
  1.000  0.000  0.000  0.000  0.000
  0.000  1.000  0.000  0.000  0.000
  0.000  0.000  1.000  0.000  0.000
  0.000  0.000  0.000  1.000  0.000
  0.000  0.000  0.000  0.000  1.000
    occupations:
  0.400  0.000  0.000  0.000  0.000
  0.000  0.400  0.000  0.000  0.000
  0.000  0.000  0.400  0.000  0.000
  0.000  0.000  0.000  0.400  0.000
  0.000  0.000  0.000  0.000  0.400
atomic mag. moment =     3.000000
atom   24   Tr[ns(na)] (up, down, total) =   5.00000  2.00000  7.00000
   spin  1
    eigenvalues: 
  1.000  1.000  1.000  1.000  1.000
    eigenvectors:
  1.000  0.000  0.000  0.000  0.000
  0.000  1.000  0.000  0.000  0.000
  0.000  0.000  1.000  0.000  0.000
  0.000  0.000  0.000  1.000  0.000
  0.000  0.000  0.000  0.000  1.000
    occupations:
  1.000  0.000  0.000  0.000  0.000
  0.000  1.000  0.000  0.000  0.000
  0.000  0.000  1.000  0.000  0.000
  0.000  0.000  0.000  1.000  0.000
  0.000  0.000  0.000  0.000  1.000
   spin  2
    eigenvalues: 
  0.400  0.400  0.400  0.400  0.400
    eigenvectors:
  1.000  0.000  0.000  0.000  0.000
  0.000  1.000  0.000  0.000  0.000
  0.000  0.000  1.000  0.000  0.000
  0.000  0.000  0.000  1.000  0.000
  0.000  0.000  0.000  0.000  1.000
    occupations:
  0.400  0.000  0.000  0.000  0.000
  0.000  0.400  0.000  0.000  0.000
  0.000  0.000  0.400  0.000  0.000
  0.000  0.000  0.000  0.400  0.000
  0.000  0.000  0.000  0.000  0.400
atomic mag. moment =     3.000000
atom   25   Tr[ns(na)] (up, down, total) =   5.00000  2.00000  7.00000
   spin  1
    eigenvalues: 
  1.000  1.000  1.000  1.000  1.000
    eigenvectors:
  1.000  0.000  0.000  0.000  0.000
  0.000  1.000  0.000  0.000  0.000
  0.000  0.000  1.000  0.000  0.000
  0.000  0.000  0.000  1.000  0.000
  0.000  0.000  0.000  0.000  1.000
    occupations:
  1.000  0.000  0.000  0.000  0.000
  0.000  1.000  0.000  0.000  0.000
  0.000  0.000  1.000  0.000  0.000
  0.000  0.000  0.000  1.000  0.000
  0.000  0.000  0.000  0.000  1.000
   spin  2
    eigenvalues: 
  0.400  0.400  0.400  0.400  0.400
    eigenvectors:
  1.000  0.000  0.000  0.000  0.000
  0.000  1.000  0.000  0.000  0.000
  0.000  0.000  1.000  0.000  0.000
  0.000  0.000  0.000  1.000  0.000
  0.000  0.000  0.000  0.000  1.000
    occupations:
  0.400  0.000  0.000  0.000  0.000
  0.000  0.400  0.000  0.000  0.000
  0.000  0.000  0.400  0.000  0.000
  0.000  0.000  0.000  0.400  0.000
  0.000  0.000  0.000  0.000  0.400
atomic mag. moment =     3.000000
atom   29   Tr[ns(na)] (up, down, total) =   5.00000  2.00000  7.00000
   spin  1
    eigenvalues: 
  1.000  1.000  1.000  1.000  1.000
    eigenvectors:
  1.000  0.000  0.000  0.000  0.000
  0.000  1.000  0.000  0.000  0.000
  0.000  0.000  1.000  0.000  0.000
  0.000  0.000  0.000  1.000  0.000
  0.000  0.000  0.000  0.000  1.000
    occupations:
  1.000  0.000  0.000  0.000  0.000
  0.000  1.000  0.000  0.000  0.000
  0.000  0.000  1.000  0.000  0.000
  0.000  0.000  0.000  1.000  0.000
  0.000  0.000  0.000  0.000  1.000
   spin  2
    eigenvalues: 
  0.400  0.400  0.400  0.400  0.400
    eigenvectors:
  1.000  0.000  0.000  0.000  0.000
  0.000  1.000  0.000  0.000  0.000
  0.000  0.000  1.000  0.000  0.000
  0.000  0.000  0.000  1.000  0.000
  0.000  0.000  0.000  0.000  1.000
    occupations:
  0.400  0.000  0.000  0.000  0.000
  0.000  0.400  0.000  0.000  0.000
  0.000  0.000  0.400  0.000  0.000
  0.000  0.000  0.000  0.400  0.000
  0.000  0.000  0.000  0.000  0.400
atomic mag. moment =     3.000000
atom   30   Tr[ns(na)] (up, down, total) =   5.00000  2.00000  7.00000
   spin  1
    eigenvalues: 
  1.000  1.000  1.000  1.000  1.000
    eigenvectors:
  1.000  0.000  0.000  0.000  0.000
  0.000  1.000  0.000  0.000  0.000
  0.000  0.000  1.000  0.000  0.000
  0.000  0.000  0.000  1.000  0.000
  0.000  0.000  0.000  0.000  1.000
    occupations:
  1.000  0.000  0.000  0.000  0.000
  0.000  1.000  0.000  0.000  0.000
  0.000  0.000  1.000  0.000  0.000
  0.000  0.000  0.000  1.000  0.000
  0.000  0.000  0.000  0.000  1.000
   spin  2
    eigenvalues: 
  0.400  0.400  0.400  0.400  0.400
    eigenvectors:
  1.000  0.000  0.000  0.000  0.000
  0.000  1.000  0.000  0.000  0.000
  0.000  0.000  1.000  0.000  0.000
  0.000  0.000  0.000  1.000  0.000
  0.000  0.000  0.000  0.000  1.000
    occupations:
  0.400  0.000  0.000  0.000  0.000
  0.000  0.400  0.000  0.000  0.000
  0.000  0.000  0.400  0.000  0.000
  0.000  0.000  0.000  0.400  0.000
  0.000  0.000  0.000  0.000  0.400
atomic mag. moment =     3.000000
atom   32   Tr[ns(na)] (up, down, total) =   5.00000  2.00000  7.00000
   spin  1
    eigenvalues: 
  1.000  1.000  1.000  1.000  1.000
    eigenvectors:
  1.000  0.000  0.000  0.000  0.000
  0.000  1.000  0.000  0.000  0.000
  0.000  0.000  1.000  0.000  0.000
  0.000  0.000  0.000  1.000  0.000
  0.000  0.000  0.000  0.000  1.000
    occupations:
  1.000  0.000  0.000  0.000  0.000
  0.000  1.000  0.000  0.000  0.000
  0.000  0.000  1.000  0.000  0.000
  0.000  0.000  0.000  1.000  0.000
  0.000  0.000  0.000  0.000  1.000
   spin  2
    eigenvalues: 
  0.400  0.400  0.400  0.400  0.400
    eigenvectors:
  1.000  0.000  0.000  0.000  0.000
  0.000  1.000  0.000  0.000  0.000
  0.000  0.000  1.000  0.000  0.000
  0.000  0.000  0.000  1.000  0.000
  0.000  0.000  0.000  0.000  1.000
    occupations:
  0.400  0.000  0.000  0.000  0.000
  0.000  0.400  0.000  0.000  0.000
  0.000  0.000  0.400  0.000  0.000
  0.000  0.000  0.000  0.400  0.000
  0.000  0.000  0.000  0.000  0.400
atomic mag. moment =     3.000000
atom   36   Tr[ns(na)] (up, down, total) =   5.00000  2.00000  7.00000
   spin  1
    eigenvalues: 
  1.000  1.000  1.000  1.000  1.000
    eigenvectors:
  1.000  0.000  0.000  0.000  0.000
  0.000  1.000  0.000  0.000  0.000
  0.000  0.000  1.000  0.000  0.000
  0.000  0.000  0.000  1.000  0.000
  0.000  0.000  0.000  0.000  1.000
    occupations:
  1.000  0.000  0.000  0.000  0.000
  0.000  1.000  0.000  0.000  0.000
  0.000  0.000  1.000  0.000  0.000
  0.000  0.000  0.000  1.000  0.000
  0.000  0.000  0.000  0.000  1.000
   spin  2
    eigenvalues: 
  0.400  0.400  0.400  0.400  0.400
    eigenvectors:
  1.000  0.000  0.000  0.000  0.000
  0.000  1.000  0.000  0.000  0.000
  0.000  0.000  1.000  0.000  0.000
  0.000  0.000  0.000  1.000  0.000
  0.000  0.000  0.000  0.000  1.000
    occupations:
  0.400  0.000  0.000  0.000  0.000
  0.000  0.400  0.000  0.000  0.000
  0.000  0.000  0.400  0.000  0.000
  0.000  0.000  0.000  0.400  0.000
  0.000  0.000  0.000  0.000  0.400
atomic mag. moment =     3.000000
atom   37   Tr[ns(na)] (up, down, total) =   5.00000  2.00000  7.00000
   spin  1
    eigenvalues: 
  1.000  1.000  1.000  1.000  1.000
    eigenvectors:
  1.000  0.000  0.000  0.000  0.000
  0.000  1.000  0.000  0.000  0.000
  0.000  0.000  1.000  0.000  0.000
  0.000  0.000  0.000  1.000  0.000
  0.000  0.000  0.000  0.000  1.000
    occupations:
  1.000  0.000  0.000  0.000  0.000
  0.000  1.000  0.000  0.000  0.000
  0.000  0.000  1.000  0.000  0.000
  0.000  0.000  0.000  1.000  0.000
  0.000  0.000  0.000  0.000  1.000
   spin  2
    eigenvalues: 
  0.400  0.400  0.400  0.400  0.400
    eigenvectors:
  1.000  0.000  0.000  0.000  0.000
  0.000  1.000  0.000  0.000  0.000
  0.000  0.000  1.000  0.000  0.000
  0.000  0.000  0.000  1.000  0.000
  0.000  0.000  0.000  0.000  1.000
    occupations:
  0.400  0.000  0.000  0.000  0.000
  0.000  0.400  0.000  0.000  0.000
  0.000  0.000  0.400  0.000  0.000
  0.000  0.000  0.000  0.400  0.000
  0.000  0.000  0.000  0.000  0.400
atomic mag. moment =     3.000000
atom   38   Tr[ns(na)] (up, down, total) =   5.00000  2.00000  7.00000
   spin  1
    eigenvalues: 
  1.000  1.000  1.000  1.000  1.000
    eigenvectors:
  1.000  0.000  0.000  0.000  0.000
  0.000  1.000  0.000  0.000  0.000
  0.000  0.000  1.000  0.000  0.000
  0.000  0.000  0.000  1.000  0.000
  0.000  0.000  0.000  0.000  1.000
    occupations:
  1.000  0.000  0.000  0.000  0.000
  0.000  1.000  0.000  0.000  0.000
  0.000  0.000  1.000  0.000  0.000
  0.000  0.000  0.000  1.000  0.000
  0.000  0.000  0.000  0.000  1.000
   spin  2
    eigenvalues: 
  0.400  0.400  0.400  0.400  0.400
    eigenvectors:
  1.000  0.000  0.000  0.000  0.000
  0.000  1.000  0.000  0.000  0.000
  0.000  0.000  1.000  0.000  0.000
  0.000  0.000  0.000  1.000  0.000
  0.000  0.000  0.000  0.000  1.000
    occupations:
  0.400  0.000  0.000  0.000  0.000
  0.000  0.400  0.000  0.000  0.000
  0.000  0.000  0.400  0.000  0.000
  0.000  0.000  0.000  0.400  0.000
  0.000  0.000  0.000  0.000  0.400
atomic mag. moment =     3.000000
N of occupied +U levels =  126.000000
 --- exit write_ns ---
 Atomic wfc used for LDA+U Projector are NOT orthogonalized
     Starting wfcs are  360 randomized atomic wfcs

     total cpu time spent up to now is      320.7 secs

     Self-consistent Calculation

     iteration #  1     ecut=   350.00 Ry     beta= 0.40
     Davidson diagonalization with overlap
     ethr =  1.00E-02,  avg # of iterations = 10.5
 --- enter write_ns ---
 LDA+U parameters:
U( 1)     =  5.00000000
alpha( 1) =  0.00000000
atom    2   Tr[ns(na)] (up, down, total) =   0.96926  0.19939  1.16865
   spin  1
    eigenvalues: 
  0.180  0.186  0.194  0.198  0.210
    eigenvectors:
  0.814  0.000  0.009  0.000  0.177
  0.036  0.066  0.652  0.197  0.049
  0.012  0.196  0.233  0.541  0.019
  0.033  0.555  0.028  0.198  0.187
  0.105  0.183  0.079  0.064  0.569
    occupations:
  0.186  0.004 -0.002  0.005 -0.009
  0.004  0.195  0.000  0.003 -0.000
 -0.002  0.000  0.195  0.003  0.003
  0.005  0.003  0.003  0.193 -0.006
 -0.009 -0.000  0.003 -0.006  0.201
   spin  2
    eigenvalues: 
  0.036  0.039  0.040  0.042  0.043
    eigenvectors:
  0.292  0.000  0.270  0.438  0.000
  0.388  0.245  0.366  0.001  0.000
  0.122  0.755  0.123  0.000  0.000
  0.050  0.000  0.062  0.152  0.736
  0.149  0.000  0.179  0.409  0.264
    occupations:
  0.039 -0.001  0.001 -0.001  0.002
 -0.001  0.038  0.001 -0.000  0.001
  0.001  0.001  0.039  0.000 -0.000
 -0.001 -0.000  0.000  0.042  0.001
  0.002  0.001 -0.000  0.001  0.041
atomic mag. moment =     0.769874
atom    3   Tr[ns(na)] (up, down, total) =   0.96959  0.19928  1.16888
   spin  1
    eigenvalues: 
  0.181  0.186  0.194  0.198  0.210
    eigenvectors:
  0.811  0.000  0.009  0.000  0.180
  0.000  0.267  0.000  0.732  0.000
  0.048  0.000  0.886  0.000  0.066
  0.141  0.000  0.105  0.000  0.754
  0.000  0.733  0.000  0.267  0.000
    occupations:
  0.186  0.000  0.004 -0.010  0.000
  0.000  0.195  0.000 -0.000  0.005
  0.004  0.000  0.195 -0.002  0.000
 -0.010 -0.000 -0.002  0.204 -0.000
  0.000  0.005  0.000 -0.000  0.190
   spin  2
    eigenvalues: 
  0.036  0.039  0.040  0.042  0.043
    eigenvectors:
  0.289  0.000  0.270  0.441  0.000
  0.000  0.999  0.000  0.000  0.000
  0.512  0.000  0.487  0.001  0.000
  0.199  0.000  0.244  0.557  0.000
  0.000  0.000  0.000  0.000  1.000
    occupations:
  0.039 -0.000 -0.002  0.002  0.000
 -0.000  0.039  0.000 -0.000  0.000
 -0.002  0.000  0.038  0.001  0.000
  0.002 -0.000  0.001  0.040 -0.000
  0.000  0.000  0.000 -0.000  0.043
atomic mag. moment =     0.770312
atom    4   Tr[ns(na)] (up, down, total) =   0.96939  0.19939  1.16878
   spin  1
    eigenvalues: 
  0.181  0.186  0.194  0.198  0.210
    eigenvectors:
  0.815  0.000  0.009  0.000  0.176
  0.038  0.073  0.646  0.194  0.050
  0.011  0.193  0.238  0.540  0.018
  0.031  0.559  0.024  0.200  0.186
  0.107  0.175  0.083  0.066  0.570
    occupations:
  0.186 -0.004 -0.002  0.005  0.009
 -0.004  0.195 -0.000 -0.003 -0.000
 -0.002 -0.000  0.195  0.003 -0.003
  0.005 -0.003  0.003  0.193  0.006
  0.009 -0.000 -0.003  0.006  0.201
   spin  2
    eigenvalues: 
  0.036  0.039  0.040  0.042  0.043
    eigenvectors:
  0.285  0.000  0.262  0.453  0.000
  0.384  0.259  0.356  0.001  0.000
  0.130  0.740  0.129  0.001  0.000
  0.049  0.000  0.061  0.145  0.745
  0.152  0.000  0.192  0.400  0.255
    occupations:
  0.039  0.001  0.001 -0.001 -0.002
  0.001  0.038 -0.001  0.000  0.001
  0.001 -0.001  0.039  0.000  0.000
 -0.001  0.000  0.000  0.042 -0.001
 -0.002  0.001  0.000 -0.001  0.041
atomic mag. moment =     0.769994
atom    8   Tr[ns(na)] (up, down, total) =   0.31115  0.09555  0.40669
   spin  1
    eigenvalues: 
  0.048  0.058  0.062  0.071  0.073
    eigenvectors:
  0.236  0.000  0.121  0.643  0.000
  0.000  1.000  0.000  0.000  0.000
  0.264  0.000  0.394  0.341  0.000
  0.500  0.000  0.484  0.016  0.000
  0.000  0.000  0.000  0.000  1.000
    occupations:
  0.064  0.000 -0.008  0.006  0.000
  0.000  0.058 -0.000 -0.000  0.000
 -0.008 -0.000  0.061  0.004  0.000
  0.006 -0.000  0.004  0.055 -0.000
  0.000  0.000  0.000 -0.000  0.073
   spin  2
    eigenvalues: 
  0.014  0.017  0.018  0.020  0.026
    eigenvectors:
  0.000  0.360  0.619  0.000  0.021
  0.149  0.000  0.000  0.851  0.000
  0.000  0.073  0.136  0.000  0.790
  0.000  0.567  0.244  0.000  0.189
  0.851  0.000  0.000  0.149  0.000
    occupations:
  0.018  0.000 -0.001 -0.001 -0.000
  0.000  0.019 -0.000 -0.000 -0.002
 -0.001 -0.000  0.025  0.003 -0.000
 -0.001 -0.000  0.003  0.019  0.000
 -0.000 -0.002 -0.000  0.000  0.015
atomic mag. moment =     0.215601
atom    9   Tr[ns(na)] (up, down, total) =   0.31118  0.09552  0.40670
   spin  1
    eigenvalues: 
  0.048  0.059  0.062  0.071  0.073
    eigenvectors:
  0.236  0.000  0.124  0.641  0.000
  0.200  0.247  0.292  0.261  0.000
  0.063  0.753  0.101  0.083  0.000
  0.126  0.000  0.122  0.005  0.747
  0.375  0.000  0.362  0.011  0.253
    occupations:
  0.064  0.007  0.004 -0.003 -0.005
  0.007  0.060  0.001  0.002  0.003
  0.004  0.001  0.059  0.001  0.002
 -0.003  0.002  0.001  0.068 -0.008
 -0.005  0.003  0.002 -0.008  0.059
   spin  2
    eigenvalues: 
  0.014  0.017  0.018  0.020  0.026
    eigenvectors:
  0.000  0.358  0.621  0.000  0.021
  0.037  0.054  0.102  0.213  0.593
  0.112  0.019  0.035  0.637  0.197
  0.638  0.143  0.061  0.111  0.047
  0.213  0.426  0.182  0.038  0.141
    occupations:
  0.018  0.001  0.000  0.000  0.001
  0.001  0.023  0.003  0.002  0.002
  0.000  0.003  0.020 -0.001  0.002
  0.000  0.002 -0.001  0.016  0.002
  0.001  0.002  0.002  0.002  0.018
atomic mag. moment =     0.215664
atom   11   Tr[ns(na)] (up, down, total) =   0.31110  0.09554  0.40665
   spin  1
    eigenvalues: 
  0.048  0.058  0.062  0.070  0.073
    eigenvectors:
  0.234  0.000  0.125  0.641  0.000
  0.196  0.255  0.291  0.257  0.000
  0.065  0.745  0.104  0.086  0.000
  0.125  0.000  0.121  0.003  0.750
  0.379  0.000  0.359  0.012  0.249
    occupations:
  0.064 -0.007  0.004 -0.003  0.005
 -0.007  0.060 -0.001 -0.002  0.003
  0.004 -0.001  0.059  0.001 -0.002
 -0.003 -0.002  0.001  0.068  0.008
  0.005  0.003 -0.002  0.008  0.059
   spin  2
    eigenvalues: 
  0.014  0.017  0.018  0.020  0.026
    eigenvectors:
  0.000  0.356  0.623  0.000  0.021
  0.037  0.056  0.101  0.214  0.592
  0.112  0.018  0.035  0.637  0.198
  0.638  0.142  0.061  0.112  0.047
  0.213  0.428  0.180  0.037  0.142
    occupations:
  0.018 -0.001  0.000  0.000 -0.001
 -0.001  0.023 -0.003 -0.002  0.002
  0.000 -0.003  0.020 -0.001 -0.002
  0.000 -0.002 -0.001  0.016 -0.002
 -0.001  0.002 -0.002 -0.002  0.018
atomic mag. moment =     0.215561
atom   15   Tr[ns(na)] (up, down, total) =   0.10343  0.04765  0.15107
   spin  1
    eigenvalues: 
  0.011  0.014  0.016  0.024  0.038
    eigenvectors:
  0.000  0.631  0.000  0.327  0.042
  0.012  0.014  0.239  0.187  0.549
  0.037  0.006  0.711  0.063  0.183
  0.714  0.087  0.037  0.106  0.056
  0.237  0.263  0.013  0.318  0.170
    occupations:
  0.019  0.001  0.001  0.003  0.005
  0.001  0.029  0.008  0.003  0.004
  0.001  0.008  0.020  0.001  0.003
  0.003  0.003  0.001  0.014  0.005
  0.005  0.004  0.003  0.005  0.021
   spin  2
    eigenvalues: 
  0.005  0.007  0.007  0.010  0.019
    eigenvectors:
  0.000  0.521  0.000  0.426  0.054
  0.060  0.022  0.193  0.187  0.540
  0.179  0.011  0.568  0.062  0.180
  0.571  0.117  0.174  0.081  0.057
  0.190  0.330  0.065  0.244  0.170
    occupations:
  0.009  0.001  0.001  0.001  0.002
  0.001  0.014  0.004  0.002  0.003
  0.001  0.004  0.009  0.000  0.002
  0.001  0.002  0.000  0.007  0.002
  0.002  0.003  0.002  0.002  0.009
atomic mag. moment =     0.055779
atom   16   Tr[ns(na)] (up, down, total) =   0.10340  0.04764  0.15105
   spin  1
    eigenvalues: 
  0.011  0.014  0.016  0.024  0.037
    eigenvectors:
  0.000  0.628  0.000  0.329  0.042
  0.049  0.000  0.951  0.000  0.000
  0.000  0.020  0.000  0.249  0.731
  0.000  0.352  0.000  0.421  0.227
  0.951  0.000  0.049  0.000  0.000
    occupations:
  0.019 -0.000 -0.001 -0.006 -0.000
 -0.000  0.016 -0.000 -0.000 -0.001
 -0.001 -0.000  0.034  0.006  0.000
 -0.006 -0.000  0.006  0.024  0.000
 -0.000 -0.001  0.000  0.000  0.011
   spin  2
    eigenvalues: 
  0.005  0.007  0.007  0.010  0.019
    eigenvectors:
  0.000  0.521  0.000  0.425  0.054
  0.240  0.000  0.760  0.000  0.000
  0.000  0.032  0.000  0.249  0.720
  0.000  0.447  0.000  0.326  0.227
  0.760  0.000  0.240  0.000  0.000
    occupations:
  0.009  0.000 -0.001 -0.003 -0.000
  0.000  0.006 -0.000  0.000 -0.001
 -0.001 -0.000  0.016  0.004  0.000
 -0.003  0.000  0.004  0.011  0.000
 -0.000 -0.001  0.000  0.000  0.005
atomic mag. moment =     0.055760
atom   17   Tr[ns(na)] (up, down, total) =   0.10337  0.04765  0.15101
   spin  1
    eigenvalues: 
  0.011  0.014  0.016  0.024  0.037
    eigenvectors:
  0.000  0.630  0.000  0.328  0.042
  0.012  0.014  0.239  0.186  0.549
  0.036  0.006  0.712  0.063  0.183
  0.713  0.089  0.035  0.106  0.057
  0.239  0.261  0.013  0.317  0.170
    occupations:
  0.019 -0.001  0.001  0.003 -0.005
 -0.001  0.029 -0.008 -0.003  0.004
  0.001 -0.008  0.020  0.001 -0.003
  0.003 -0.003  0.001  0.014 -0.006
 -0.005  0.004 -0.003 -0.006  0.021
   spin  2
    eigenvalues: 
  0.005  0.007  0.007  0.010  0.019
    eigenvectors:
  0.000  0.521  0.000  0.425  0.054
  0.060  0.026  0.188  0.186  0.540
  0.180  0.006  0.572  0.062  0.180
  0.570  0.107  0.185  0.082  0.057
  0.190  0.340  0.055  0.244  0.170
    occupations:
  0.009 -0.001  0.001  0.001 -0.002
 -0.001  0.014 -0.004 -0.002  0.003
  0.001 -0.004  0.009  0.000 -0.002
  0.001 -0.002  0.000  0.007 -0.002
 -0.002  0.003 -0.002 -0.002  0.009
atomic mag. moment =     0.055723
atom   23   Tr[ns(na)] (up, down, total) =   0.05917  0.03037  0.08954
   spin  1
    eigenvalues: 
  0.003  0.007  0.008  0.012  0.029
    eigenvectors:
  0.000  0.568  0.000  0.393  0.039
  0.102  0.023  0.149  0.175  0.551
  0.304  0.008  0.445  0.059  0.184
  0.446  0.101  0.303  0.093  0.057
  0.149  0.300  0.103  0.279  0.170
    occupations:
  0.010 -0.002  0.001  0.002 -0.003
 -0.002  0.020 -0.008 -0.004  0.005
  0.001 -0.008  0.011  0.000 -0.004
  0.002 -0.004  0.000  0.007 -0.004
 -0.003  0.005 -0.004 -0.004  0.012
   spin  2
    eigenvalues: 
  0.002  0.004  0.005  0.005  0.014
    eigenvectors:
  0.000  0.182  0.000  0.746  0.072
  0.213  0.066  0.037  0.129  0.555
  0.640  0.022  0.110  0.043  0.185
  0.110  0.183  0.639  0.020  0.047
  0.037  0.547  0.213  0.062  0.141
    occupations:
  0.006 -0.002  0.001  0.001 -0.001
 -0.002  0.009 -0.004 -0.002  0.002
  0.001 -0.004  0.005  0.000 -0.002
  0.001 -0.002  0.000  0.005 -0.001
 -0.001  0.002 -0.002 -0.001  0.006
atomic mag. moment =     0.028806
atom   24   Tr[ns(na)] (up, down, total) =   0.05915  0.03037  0.08952
   spin  1
    eigenvalues: 
  0.003  0.007  0.008  0.012  0.029
    eigenvectors:
  0.000  0.570  0.000  0.390  0.039
  0.403  0.000  0.597  0.000  0.000
  0.000  0.031  0.000  0.235  0.735
  0.000  0.399  0.000  0.375  0.226
  0.597  0.000  0.403  0.000  0.000
    occupations:
  0.010 -0.000 -0.002 -0.004  0.000
 -0.000  0.006  0.000  0.000 -0.002
 -0.002  0.000  0.024  0.008  0.000
 -0.004  0.000  0.008  0.014 -0.000
  0.000 -0.002  0.000 -0.000  0.005
   spin  2
    eigenvalues: 
  0.002  0.004  0.005  0.005  0.014
    eigenvectors:
  0.000  0.182  0.000  0.746  0.072
  0.853  0.000  0.147  0.000  0.000
  0.000  0.088  0.000  0.172  0.740
  0.000  0.730  0.000  0.082  0.188
  0.147  0.000  0.853  0.000  0.000
    occupations:
  0.006 -0.000 -0.002 -0.001 -0.000
 -0.000  0.003  0.000 -0.000 -0.001
 -0.002  0.000  0.012  0.003  0.000
 -0.001 -0.000  0.003  0.006  0.000
 -0.000 -0.001  0.000  0.000  0.004
atomic mag. moment =     0.028779
atom   25   Tr[ns(na)] (up, down, total) =   0.05915  0.03037  0.08952
   spin  1
    eigenvalues: 
  0.003  0.007  0.008  0.012  0.029
    eigenvectors:
  0.000  0.569  0.000  0.391  0.039
  0.101  0.024  0.148  0.176  0.551
  0.304  0.007  0.447  0.059  0.184
  0.446  0.098  0.306  0.093  0.057
  0.148  0.302  0.099  0.281  0.170
    occupations:
  0.010  0.002  0.001  0.002  0.003
  0.002  0.020  0.008  0.004  0.005
  0.001  0.008  0.011  0.000  0.004
  0.002  0.004  0.000  0.007  0.004
  0.003  0.005  0.004  0.004  0.012
   spin  2
    eigenvalues: 
  0.002  0.004  0.005  0.005  0.014
    eigenvectors:
  0.000  0.182  0.000  0.745  0.072
  0.213  0.066  0.037  0.129  0.555
  0.639  0.022  0.111  0.043  0.185
  0.111  0.181  0.640  0.021  0.047
  0.037  0.548  0.212  0.062  0.141
    occupations:
  0.006  0.002  0.001  0.001  0.001
  0.002  0.009  0.004  0.002  0.002
  0.001  0.004  0.005  0.000  0.002
  0.001  0.002  0.000  0.005  0.001
  0.001  0.002  0.002  0.001  0.006
atomic mag. moment =     0.028778
atom   29   Tr[ns(na)] (up, down, total) =   0.03928  0.02315  0.06244
   spin  1
    eigenvalues: 
  0.002  0.005  0.006  0.006  0.021
    eigenvectors:
  0.000  0.093  0.000  0.850  0.056
  0.456  0.000  0.543  0.000  0.000
  0.000  0.118  0.000  0.115  0.767
  0.000  0.788  0.000  0.034  0.177
  0.544  0.000  0.456  0.000  0.000
    occupations:
  0.007  0.000 -0.003 -0.002 -0.000
  0.000  0.004  0.000  0.000 -0.002
 -0.003  0.000  0.017  0.006 -0.000
 -0.002  0.000  0.006  0.008 -0.000
 -0.000 -0.002 -0.000 -0.000  0.003
   spin  2
    eigenvalues: 
  0.001  0.003  0.003  0.004  0.011
    eigenvectors:
  0.000  0.043  0.000  0.869  0.088
  0.751  0.000  0.249  0.000  0.000
  0.000  0.130  0.000  0.125  0.744
  0.000  0.827  0.000  0.005  0.168
  0.249  0.000  0.751  0.000  0.000
    occupations:
  0.005 -0.000 -0.002 -0.001 -0.000
 -0.000  0.002  0.000  0.000 -0.001
 -0.002  0.000  0.009  0.003 -0.000
 -0.001  0.000  0.003  0.004 -0.000
 -0.000 -0.001 -0.000 -0.000  0.003
atomic mag. moment =     0.016134
atom   30   Tr[ns(na)] (up, down, total) =   0.03917  0.02315  0.06232
   spin  1
    eigenvalues: 
  0.002  0.005  0.006  0.006  0.021
    eigenvectors:
  0.000  0.099  0.000  0.844  0.057
  0.114  0.087  0.135  0.089  0.574
  0.342  0.029  0.409  0.029  0.191
  0.408  0.196  0.342  0.009  0.045
  0.136  0.588  0.114  0.029  0.133
    occupations:
  0.007  0.002  0.001  0.001  0.002
  0.002  0.014  0.006  0.003  0.004
  0.001  0.006  0.007 -0.000  0.003
  0.001  0.003 -0.000  0.005  0.002
  0.002  0.004  0.003  0.002  0.007
   spin  2
    eigenvalues: 
  0.001  0.003  0.003  0.004  0.011
    eigenvectors:
  0.000  0.046  0.000  0.866  0.088
  0.187  0.097  0.063  0.096  0.558
  0.562  0.032  0.188  0.032  0.186
  0.188  0.206  0.563  0.002  0.042
  0.063  0.619  0.187  0.005  0.127
    occupations:
  0.005  0.002  0.001  0.001  0.001
  0.002  0.008  0.003  0.002  0.002
  0.001  0.003  0.004  0.000  0.002
  0.001  0.002  0.000  0.003  0.001
  0.001  0.002  0.002  0.001  0.004
atomic mag. moment =     0.016023
atom   32   Tr[ns(na)] (up, down, total) =   0.03927  0.02315  0.06242
   spin  1
    eigenvalues: 
  0.002  0.005  0.006  0.006  0.021
    eigenvectors:
  0.000  0.094  0.000  0.850  0.056
  0.114  0.092  0.126  0.092  0.576
  0.342  0.025  0.418  0.024  0.191
  0.408  0.188  0.353  0.006  0.045
  0.136  0.601  0.102  0.029  0.132
    occupations:
  0.007 -0.002  0.001  0.001 -0.002
 -0.002  0.014 -0.006 -0.003  0.004
  0.001 -0.006  0.007 -0.000 -0.003
  0.001 -0.003 -0.000  0.005 -0.002
 -0.002  0.004 -0.003 -0.002  0.007
   spin  2
    eigenvalues: 
  0.001  0.003  0.003  0.004  0.011
    eigenvectors:
  0.000  0.043  0.000  0.869  0.088
  0.187  0.099  0.059  0.095  0.559
  0.564  0.031  0.189  0.031  0.185
  0.187  0.199  0.571  0.001  0.042
  0.062  0.628  0.181  0.004  0.126
    occupations:
  0.005 -0.002  0.001  0.001 -0.001
 -0.002  0.008 -0.003 -0.002  0.002
  0.001 -0.003  0.004  0.000 -0.002
  0.001 -0.002  0.000  0.003 -0.001
 -0.001  0.002 -0.002 -0.001  0.004
atomic mag. moment =     0.016118
atom   36   Tr[ns(na)] (up, down, total) =   0.02369  0.01329  0.03698
   spin  1
    eigenvalues: 
  0.002  0.003  0.004  0.004  0.011
    eigenvectors:
  0.000  0.512  0.000  0.421  0.067
  0.069  0.023  0.192  0.197  0.519
  0.206  0.008  0.532  0.080  0.173
  0.545  0.113  0.199  0.083  0.060
  0.180  0.344  0.076  0.220  0.180
    occupations:
  0.004  0.001  0.001  0.001  0.001
  0.001  0.008  0.003  0.002  0.002
  0.001  0.003  0.005  0.000  0.002
  0.001  0.002  0.000  0.003  0.001
  0.001  0.002  0.002  0.001  0.005
   spin  2
    eigenvalues: 
  0.001  0.002  0.002  0.002  0.005
    eigenvectors:
  0.000  0.559  0.000  0.314  0.127
  0.184  0.005  0.066  0.280  0.465
  0.550  0.002  0.200  0.093  0.155
  0.199  0.109  0.552  0.077  0.063
  0.067  0.325  0.182  0.236  0.190
    occupations:
  0.003  0.001  0.000  0.000  0.001
  0.001  0.003  0.001  0.001  0.001
  0.000  0.001  0.002  0.000  0.001
  0.000  0.001  0.000  0.002  0.000
  0.001  0.001  0.001  0.000  0.003
atomic mag. moment =     0.010394
atom   37   Tr[ns(na)] (up, down, total) =   0.02427  0.01367  0.03793
   spin  1
    eigenvalues: 
  0.001  0.003  0.004  0.005  0.011
    eigenvectors:
  0.000  0.452  0.382  0.096  0.070
  0.309  0.041  0.307  0.339  0.003
  0.000  0.028  0.097  0.198  0.676
  0.009  0.424  0.059  0.256  0.252
  0.681  0.055  0.154  0.110  0.000
    occupations:
  0.004 -0.000 -0.001 -0.001  0.000
 -0.000  0.003  0.000  0.001 -0.001
 -0.001  0.000  0.009  0.003  0.000
 -0.001  0.001  0.003  0.006 -0.000
  0.000 -0.001  0.000 -0.000  0.002
   spin  2
    eigenvalues: 
  0.001  0.002  0.002  0.003  0.005
    eigenvectors:
  0.008  0.426  0.421  0.005  0.139
  0.619  0.007  0.077  0.295  0.001
  0.007  0.003  0.216  0.171  0.604
  0.062  0.321  0.064  0.297  0.256
  0.304  0.242  0.223  0.231  0.000
    occupations:
  0.003  0.000 -0.001 -0.001  0.000
  0.000  0.002 -0.000  0.000 -0.000
 -0.001 -0.000  0.004  0.001  0.000
 -0.001  0.000  0.001  0.003 -0.000
  0.000 -0.000  0.000 -0.000  0.002
atomic mag. moment =     0.010599
atom   38   Tr[ns(na)] (up, down, total) =   0.02427  0.01367  0.03793
   spin  1
    eigenvalues: 
  0.001  0.003  0.004  0.005  0.011
    eigenvectors:
  0.000  0.458  0.376  0.095  0.070
  0.086  0.060  0.302  0.009  0.542
  0.222  0.009  0.105  0.530  0.135
  0.581  0.016  0.047  0.291  0.064
  0.111  0.457  0.169  0.074  0.189
    occupations:
  0.004 -0.001  0.001  0.001 -0.001
 -0.001  0.008 -0.002 -0.002  0.002
  0.001 -0.002  0.005 -0.000 -0.001
  0.001 -0.002 -0.000  0.003 -0.001
 -0.001  0.002 -0.001 -0.001  0.005
   spin  2
    eigenvalues: 
  0.001  0.002  0.002  0.003  0.005
    eigenvectors:
  0.008  0.424  0.424  0.005  0.139
  0.215  0.008  0.293  0.007  0.476
  0.411  0.002  0.000  0.459  0.128
  0.362  0.021  0.079  0.475  0.063
  0.004  0.545  0.205  0.053  0.193
    occupations:
  0.003 -0.001  0.000  0.000 -0.001
 -0.001  0.003 -0.001 -0.001  0.001
  0.000 -0.001  0.002 -0.000 -0.000
  0.000 -0.001 -0.000  0.002 -0.000
 -0.001  0.001 -0.000 -0.000  0.003
atomic mag. moment =     0.010598
N of occupied +U levels =    5.748100
 --- exit write_ns ---
 --- in v_hubbard ---
Hubbard energy    0.9329
 -------

     total cpu time spent up to now is     2718.0 secs

     total energy              =   11432.16488391 Ry
     Harris-Foulkes estimate   =   -5865.23735554 Ry
     estimated scf accuracy    <   27503.49014271 Ry

     total magnetization       =    31.60 Bohr mag/cell
     absolute magnetization    =    43.30 Bohr mag/cell

     iteration #  2     ecut=   350.00 Ry     beta= 0.40
     Davidson diagonalization with overlap
     ethr =  1.00E-02,  avg # of iterations = 47.0
 --- enter write_ns ---
 LDA+U parameters:
U( 1)     =  5.00000000
alpha( 1) =  0.00000000
atom    2   Tr[ns(na)] (up, down, total) =   0.00000  0.00000  0.00000
   spin  1
    eigenvalues: 
  0.000  0.000  0.000  0.000  0.000
    eigenvectors:
  0.535  0.001  0.266  0.141  0.057
  0.438  0.034  0.346  0.095  0.086
  0.012  0.837  0.018  0.049  0.083
  0.014  0.109  0.092  0.682  0.103
  0.000  0.018  0.279  0.033  0.670
    occupations:
  0.000 -0.000 -0.000 -0.000  0.000
 -0.000  0.000  0.000 -0.000 -0.000
 -0.000  0.000  0.000 -0.000 -0.000
 -0.000 -0.000 -0.000  0.000  0.000
  0.000 -0.000 -0.000  0.000  0.000
   spin  2
    eigenvalues: 
  0.000  0.000  0.000  0.000  0.000
    eigenvectors:
  0.688  0.189  0.005  0.007  0.112
  0.045  0.000  0.437  0.270  0.249
  0.255  0.311  0.016  0.229  0.188
  0.012  0.462  0.026  0.311  0.189
  0.000  0.038  0.517  0.183  0.263
    occupations:
  0.000  0.000 -0.000 -0.000 -0.000
  0.000  0.000  0.000 -0.000 -0.000
 -0.000  0.000  0.000  0.000  0.000
 -0.000 -0.000  0.000  0.000  0.000
 -0.000 -0.000  0.000  0.000  0.000
atomic mag. moment =     0.000000
atom    3   Tr[ns(na)] (up, down, total) =   0.00000  0.00000  0.00000
   spin  1
    eigenvalues: 
  0.000  0.000  0.000  0.000  0.000
    eigenvectors:
  0.004  0.002  0.248  0.438  0.308
  0.242  0.059  0.541  0.040  0.119
  0.355  0.331  0.195  0.103  0.017
  0.222  0.145  0.001  0.235  0.397
  0.176  0.464  0.016  0.184  0.160
    occupations:
  0.000  0.000 -0.000  0.000 -0.000
  0.000  0.000 -0.000  0.000  0.000
 -0.000 -0.000  0.000  0.000  0.000
  0.000  0.000  0.000  0.000 -0.000
 -0.000  0.000  0.000 -0.000  0.000
   spin  2
    eigenvalues: 
  0.000  0.000  0.000  0.000  0.000
    eigenvectors:
  0.850  0.112  0.003  0.022  0.013
  0.021  0.011  0.462  0.226  0.279
  0.007  0.002  0.438  0.526  0.029
  0.023  0.179  0.084  0.192  0.522
  0.099  0.696  0.013  0.035  0.156
    occupations:
  0.000  0.000 -0.000 -0.000  0.000
  0.000  0.000 -0.000 -0.000  0.000
 -0.000 -0.000  0.000 -0.000 -0.000
 -0.000 -0.000 -0.000  0.000 -0.000
  0.000  0.000 -0.000 -0.000  0.000
atomic mag. moment =     0.000000
atom    4   Tr[ns(na)] (up, down, total) =   0.00000  0.00000  0.00000
   spin  1
    eigenvalues: 
  0.000  0.000  0.000  0.000  0.000
    eigenvectors:
  0.771  0.001  0.048  0.099  0.082
  0.008  0.476  0.467  0.048  0.001
  0.178  0.049  0.167  0.591  0.014
  0.003  0.409  0.208  0.262  0.117
  0.040  0.065  0.109  0.000  0.786
    occupations:
  0.000 -0.000 -0.000  0.000 -0.000
 -0.000  0.000  0.000 -0.000 -0.000
 -0.000  0.000  0.000  0.000  0.000
  0.000 -0.000  0.000  0.000 -0.000
 -0.000 -0.000  0.000 -0.000  0.000
   spin  2
    eigenvalues: 
  0.000  0.000  0.000  0.000  0.000
    eigenvectors:
  0.229  0.144  0.555  0.070  0.002
  0.613  0.083  0.200  0.081  0.023
  0.033  0.515  0.148  0.195  0.109
  0.080  0.224  0.094  0.199  0.402
  0.045  0.034  0.003  0.455  0.463
    occupations:
  0.000 -0.000 -0.000 -0.000  0.000
 -0.000  0.000 -0.000 -0.000  0.000
 -0.000 -0.000  0.000  0.000  0.000
 -0.000 -0.000  0.000  0.000  0.000
  0.000  0.000  0.000  0.000  0.000
atomic mag. moment =     0.000000
atom    8   Tr[ns(na)] (up, down, total) =   0.00000  0.00000  0.00000
   spin  1
    eigenvalues: 
  0.000  0.000  0.000  0.000  0.000
    eigenvectors:
  0.265  0.097  0.115  0.465  0.058
  0.005  0.119  0.091  0.353  0.432
  0.006  0.083  0.698  0.038  0.174
  0.015  0.696  0.000  0.012  0.277
  0.709  0.005  0.095  0.133  0.058
    occupations:
  0.000 -0.000 -0.000  0.000 -0.000
 -0.000  0.000  0.000 -0.000  0.000
 -0.000  0.000  0.000 -0.000  0.000
  0.000 -0.000 -0.000  0.000 -0.000
 -0.000  0.000  0.000 -0.000  0.000
   spin  2
    eigenvalues: 
  0.000  0.000  0.000  0.000  0.000
    eigenvectors:
  0.312  0.123  0.412  0.151  0.001
  0.132  0.218  0.210  0.419  0.021
  0.045  0.108  0.008  0.008  0.831
  0.459  0.032  0.012  0.421  0.076
  0.052  0.519  0.358  0.001  0.071
    occupations:
  0.000  0.000 -0.000  0.000 -0.000
  0.000  0.000 -0.000  0.000  0.000
 -0.000 -0.000  0.000  0.000  0.000
  0.000  0.000  0.000  0.000  0.000
 -0.000  0.000  0.000  0.000  0.000
atomic mag. moment =     0.000000
atom    9   Tr[ns(na)] (up, down, total) =   0.00000  0.00000  0.00000
   spin  1
    eigenvalues: 
  0.000  0.000  0.000  0.000  0.000
    eigenvectors:
  0.817  0.039  0.103  0.003  0.038
  0.042  0.714  0.050  0.008  0.187
  0.134  0.013  0.837  0.007  0.009
  0.005  0.235  0.002  0.017  0.741
  0.003  0.000  0.008  0.965  0.025
    occupations:
  0.000 -0.000 -0.000  0.000  0.000
 -0.000  0.000 -0.000 -0.000  0.000
 -0.000 -0.000  0.000 -0.000  0.000
  0.000 -0.000 -0.000  0.000 -0.000
  0.000  0.000  0.000 -0.000  0.000
   spin  2
    eigenvalues: 
  0.000  0.000  0.000  0.000  0.000
    eigenvectors:
  0.003  0.227  0.038  0.719  0.013
  0.078  0.497  0.339  0.067  0.019
  0.025  0.220  0.531  0.149  0.074
  0.605  0.001  0.086  0.029  0.279
  0.289  0.055  0.005  0.035  0.615
    occupations:
  0.000 -0.000  0.000 -0.000  0.000
 -0.000  0.000 -0.000 -0.000 -0.000
  0.000 -0.000  0.000  0.000  0.000
 -0.000 -0.000  0.000  0.000  0.000
  0.000 -0.000  0.000  0.000  0.000
atomic mag. moment =     0.000000
atom   11   Tr[ns(na)] (up, down, total) =   0.00000  0.00000  0.00000
   spin  1
    eigenvalues: 
  0.000  0.000  0.000  0.000  0.000
    eigenvectors:
  0.153  0.407  0.140  0.016  0.285
  0.258  0.049  0.415  0.273  0.004
  0.000  0.007  0.389  0.447  0.156
  0.004  0.266  0.003  0.196  0.530
  0.584  0.271  0.052  0.067  0.025
    occupations:
  0.000  0.000  0.000  0.000  0.000
  0.000  0.000  0.000 -0.000 -0.000
  0.000  0.000  0.000  0.000  0.000
  0.000 -0.000  0.000  0.000  0.000
  0.000 -0.000  0.000  0.000  0.000
   spin  2
    eigenvalues: 
  0.000  0.000  0.000  0.000  0.000
    eigenvectors:
  0.480  0.043  0.108  0.106  0.263
  0.000  0.116  0.363  0.239  0.281
  0.365  0.095  0.369  0.019  0.151
  0.155  0.002  0.153  0.594  0.097
  0.000  0.743  0.006  0.042  0.208
    occupations:
  0.000  0.000  0.000 -0.000 -0.000
  0.000  0.000  0.000  0.000 -0.000
  0.000  0.000  0.000  0.000 -0.000
 -0.000  0.000  0.000  0.000  0.000
 -0.000 -0.000 -0.000  0.000  0.000
atomic mag. moment =     0.000000
atom   15   Tr[ns(na)] (up, down, total) =   0.00000  0.00000  0.00001
   spin  1
    eigenvalues: 
  0.000  0.000  0.000  0.000  0.000
    eigenvectors:
  0.958  0.019  0.017  0.006  0.000
  0.013  0.947  0.029  0.000  0.012
  0.025  0.032  0.729  0.072  0.143
  0.002  0.001  0.198  0.039  0.761
  0.002  0.003  0.027  0.883  0.085
    occupations:
  0.000 -0.000  0.000 -0.000 -0.000
 -0.000  0.000  0.000  0.000  0.000
  0.000  0.000  0.000  0.000 -0.000
 -0.000  0.000  0.000  0.000  0.000
 -0.000  0.000 -0.000  0.000  0.000
   spin  2
    eigenvalues: 
  0.000  0.000  0.000  0.000  0.000
    eigenvectors:
  0.016  0.013  0.755  0.201  0.015
  0.542  0.062  0.007  0.067  0.322
  0.317  0.547  0.000  0.017  0.119
  0.003  0.009  0.234  0.713  0.041
  0.123  0.369  0.003  0.002  0.503
    occupations:
  0.000  0.000 -0.000 -0.000 -0.000
  0.000  0.000  0.000 -0.000  0.000
 -0.000  0.000  0.000  0.000  0.000
 -0.000 -0.000  0.000  0.000  0.000
 -0.000  0.000  0.000  0.000  0.000
atomic mag. moment =     0.000002
atom   16   Tr[ns(na)] (up, down, total) =   0.00000  0.00000  0.00001
   spin  1
    eigenvalues: 
  0.000  0.000  0.000  0.000  0.000
    eigenvectors:
  0.901  0.070  0.004  0.025  0.000
  0.018  0.058  0.923  0.000  0.000
  0.062  0.860  0.071  0.002  0.005
  0.018  0.011  0.000  0.881  0.090
  0.002  0.001  0.001  0.092  0.904
    occupations:
  0.000  0.000 -0.000  0.000  0.000
  0.000  0.000  0.000 -0.000  0.000
 -0.000  0.000  0.000 -0.000  0.000
  0.000 -0.000 -0.000  0.000 -0.000
  0.000  0.000  0.000 -0.000  0.000
   spin  2
    eigenvalues: 
  0.000  0.000  0.000  0.000  0.000
    eigenvectors:
  0.001  0.287  0.667  0.021  0.025
  0.191  0.543  0.183  0.009  0.073
  0.718  0.143  0.031  0.105  0.003
  0.005  0.019  0.100  0.093  0.783
  0.086  0.007  0.018  0.773  0.116
    occupations:
  0.000 -0.000 -0.000 -0.000 -0.000
 -0.000  0.000  0.000  0.000  0.000
 -0.000  0.000  0.000 -0.000 -0.000
 -0.000  0.000 -0.000  0.000  0.000
 -0.000  0.000 -0.000  0.000  0.000
atomic mag. moment =     0.000002
atom   17   Tr[ns(na)] (up, down, total) =   0.00000  0.00000  0.00001
   spin  1
    eigenvalues: 
  0.000  0.000  0.000  0.000  0.000
    eigenvectors:
  0.871  0.062  0.051  0.016  0.000
  0.010  0.591  0.334  0.063  0.002
  0.099  0.323  0.558  0.019  0.001
  0.014  0.020  0.054  0.662  0.251
  0.007  0.005  0.004  0.240  0.744
    occupations:
  0.000  0.000 -0.000  0.000 -0.000
  0.000  0.000  0.000  0.000 -0.000
 -0.000  0.000  0.000  0.000 -0.000
  0.000  0.000  0.000  0.000  0.000
 -0.000 -0.000 -0.000  0.000  0.000
   spin  2
    eigenvalues: 
  0.000  0.000  0.000  0.000  0.000
    eigenvectors:
  0.018  0.077  0.034  0.804  0.067
  0.353  0.433  0.207  0.000  0.007
  0.265  0.003  0.649  0.001  0.082
  0.083  0.003  0.019  0.055  0.840
  0.281  0.484  0.090  0.141  0.004
    occupations:
  0.000 -0.000 -0.000  0.000  0.000
 -0.000  0.000 -0.000 -0.000 -0.000
 -0.000 -0.000  0.000 -0.000 -0.000
  0.000 -0.000 -0.000  0.000 -0.000
  0.000 -0.000 -0.000 -0.000  0.000
atomic mag. moment =     0.000002
atom   23   Tr[ns(na)] (up, down, total) =   0.00044  0.00028  0.00072
   spin  1
    eigenvalues: 
  0.000  0.000  0.000  0.000  0.000
    eigenvectors:
  0.955  0.010  0.001  0.009  0.026
  0.035  0.400  0.007  0.000  0.557
  0.000  0.006  0.913  0.050  0.030
  0.001  0.577  0.038  0.009  0.375
  0.008  0.008  0.041  0.932  0.012
    occupations:
  0.000 -0.000 -0.000 -0.000 -0.000
 -0.000  0.000  0.000  0.000 -0.000
 -0.000  0.000  0.000  0.000  0.000
 -0.000  0.000  0.000  0.000  0.000
 -0.000 -0.000  0.000  0.000  0.000
   spin  2
    eigenvalues: 
  0.000  0.000  0.000  0.000  0.000
    eigenvectors:
  0.003  0.010  0.005  0.010  0.972
  0.149  0.044  0.280  0.525  0.001
  0.165  0.077  0.283  0.464  0.010
  0.655  0.164  0.178  0.000  0.004
  0.027  0.704  0.254  0.001  0.013
    occupations:
  0.000  0.000 -0.000 -0.000 -0.000
  0.000  0.000 -0.000 -0.000  0.000
 -0.000 -0.000  0.000 -0.000  0.000
 -0.000 -0.000 -0.000  0.000 -0.000
 -0.000  0.000  0.000 -0.000  0.000
atomic mag. moment =     0.000151
atom   24   Tr[ns(na)] (up, down, total) =   0.00042  0.00027  0.00069
   spin  1
    eigenvalues: 
  0.000  0.000  0.000  0.000  0.000
    eigenvectors:
  0.971  0.003  0.006  0.001  0.020
  0.007  0.108  0.441  0.400  0.044
  0.001  0.265  0.211  0.419  0.104
  0.020  0.013  0.024  0.170  0.773
  0.001  0.611  0.319  0.010  0.059
    occupations:
  0.000  0.000 -0.000  0.000 -0.000
  0.000  0.000 -0.000  0.000  0.000
 -0.000 -0.000  0.000 -0.000  0.000
  0.000  0.000 -0.000  0.000 -0.000
 -0.000  0.000  0.000 -0.000  0.000
   spin  2
    eigenvalues: 
  0.000  0.000  0.000  0.000  0.000
    eigenvectors:
  0.011  0.016  0.040  0.000  0.933
  0.131  0.489  0.245  0.078  0.057
  0.016  0.010  0.386  0.581  0.007
  0.063  0.270  0.328  0.337  0.001
  0.779  0.215  0.001  0.004  0.002
    occupations:
  0.000 -0.000  0.000 -0.000 -0.000
 -0.000  0.000  0.000  0.000 -0.000
  0.000  0.000  0.000  0.000 -0.000
 -0.000  0.000  0.000  0.000  0.000
 -0.000 -0.000 -0.000  0.000  0.000
atomic mag. moment =     0.000147
atom   25   Tr[ns(na)] (up, down, total) =   0.00041  0.00028  0.00069
   spin  1
    eigenvalues: 
  0.000  0.000  0.000  0.000  0.000
    eigenvectors:
  0.918  0.062  0.007  0.000  0.012
  0.003  0.048  0.743  0.111  0.096
  0.045  0.526  0.168  0.241  0.019
  0.021  0.056  0.065  0.004  0.854
  0.013  0.308  0.016  0.644  0.019
    occupations:
  0.000 -0.000 -0.000  0.000 -0.000
 -0.000  0.000 -0.000 -0.000  0.000
 -0.000 -0.000  0.000  0.000 -0.000
  0.000 -0.000  0.000  0.000  0.000
 -0.000  0.000 -0.000  0.000  0.000
   spin  2
    eigenvalues: 
  0.000  0.000  0.000  0.000  0.000
    eigenvectors:
  0.005  0.001  0.006  0.127  0.861
  0.269  0.326  0.026  0.315  0.065
  0.557  0.006  0.255  0.163  0.018
  0.159  0.491  0.316  0.014  0.020
  0.010  0.176  0.397  0.380  0.036
    occupations:
  0.000 -0.000 -0.000  0.000  0.000
 -0.000  0.000  0.000  0.000 -0.000
 -0.000  0.000  0.000 -0.000 -0.000
  0.000  0.000 -0.000  0.000  0.000
  0.000 -0.000 -0.000  0.000  0.000
atomic mag. moment =     0.000126
atom   29   Tr[ns(na)] (up, down, total) =   4.99536  4.99915  9.99450
   spin  1
    eigenvalues: 
  0.999  0.999  0.999  0.999  0.999
    eigenvectors:
  0.388  0.553  0.000  0.058  0.000
  0.000  0.001  0.994  0.000  0.005
  0.583  0.416  0.001  0.000  0.000
  0.028  0.030  0.000  0.939  0.002
  0.000  0.000  0.005  0.002  0.993
    occupations:
  0.999  0.000  0.000  0.000  0.000
  0.000  0.999  0.000  0.000  0.000
  0.000  0.000  0.999 -0.000 -0.000
  0.000  0.000 -0.000  0.999  0.000
  0.000  0.000 -0.000  0.000  0.999
   spin  2
    eigenvalues: 
  1.000  1.000  1.000  1.000  1.000
    eigenvectors:
  0.837  0.127  0.004  0.027  0.006
  0.002  0.078  0.920  0.000  0.000
  0.141  0.780  0.075  0.004  0.000
  0.021  0.014  0.002  0.808  0.155
  0.000  0.000  0.000  0.161  0.839
    occupations:
  1.000 -0.000 -0.000 -0.000 -0.000
 -0.000  1.000 -0.000 -0.000  0.000
 -0.000 -0.000  1.000  0.000 -0.000
 -0.000 -0.000  0.000  1.000  0.000
 -0.000  0.000 -0.000  0.000  1.000
atomic mag. moment =    -0.003788
atom   30   Tr[ns(na)] (up, down, total) =   4.99536  4.99914  9.99451
   spin  1
    eigenvalues: 
  0.999  0.999  0.999  0.999  0.999
    eigenvectors:
  0.438  0.508  0.002  0.052  0.000
  0.405  0.397  0.196  0.001  0.001
  0.126  0.074  0.796  0.000  0.005
  0.008  0.006  0.006  0.211  0.769
  0.023  0.015  0.000  0.737  0.225
    occupations:
  0.999 -0.000 -0.000 -0.000 -0.000
 -0.000  0.999 -0.000 -0.000 -0.000
 -0.000 -0.000  0.999  0.000 -0.000
 -0.000 -0.000  0.000  0.999 -0.000
 -0.000 -0.000 -0.000 -0.000  0.999
   spin  2
    eigenvalues: 
  1.000  1.000  1.000  1.000  1.000
    eigenvectors:
  0.825  0.143  0.004  0.025  0.003
  0.122  0.765  0.111  0.002  0.000
  0.034  0.081  0.885  0.000  0.000
  0.007  0.001  0.000  0.041  0.951
  0.013  0.011  0.000  0.931  0.045
    occupations:
  1.000  0.000  0.000  0.000  0.000
  0.000  1.000 -0.000 -0.000  0.000
  0.000 -0.000  1.000 -0.000  0.000
  0.000 -0.000 -0.000  1.000 -0.000
  0.000  0.000  0.000 -0.000  1.000
atomic mag. moment =    -0.003782
atom   32   Tr[ns(na)] (up, down, total) =   4.99537  4.99914  9.99451
   spin  1
    eigenvalues: 
  0.999  0.999  0.999  0.999  0.999
    eigenvectors:
  0.420  0.519  0.000  0.061  0.000
  0.399  0.316  0.283  0.001  0.001
  0.151  0.133  0.710  0.001  0.005
  0.005  0.008  0.006  0.218  0.763
  0.025  0.023  0.000  0.720  0.231
    occupations:
  0.999  0.000 -0.000 -0.000  0.000
  0.000  0.999  0.000  0.000 -0.000
 -0.000  0.000  0.999  0.000  0.000
 -0.000  0.000  0.000  0.999  0.000
  0.000 -0.000  0.000  0.000  0.999
   spin  2
    eigenvalues: 
  1.000  1.000  1.000  1.000  1.000
    eigenvectors:
  0.805  0.152  0.011  0.022  0.009
  0.128  0.369  0.502  0.002  0.000
  0.048  0.466  0.485  0.000  0.001
  0.005  0.002  0.001  0.783  0.208
  0.015  0.010  0.001  0.193  0.781
    occupations:
  1.000 -0.000  0.000  0.000 -0.000
 -0.000  1.000  0.000 -0.000  0.000
  0.000  0.000  1.000 -0.000 -0.000
  0.000 -0.000 -0.000  1.000  0.000
 -0.000  0.000 -0.000  0.000  1.000
atomic mag. moment =    -0.003773
atom   36   Tr[ns(na)] (up, down, total) =   0.21550  0.00933  0.22483
   spin  1
    eigenvalues: 
  0.001  0.001  0.060  0.061  0.093
    eigenvectors:
  0.000  0.000  0.000  0.000  1.000
  0.000  0.000  0.287  0.713  0.000
  0.000  0.000  0.713  0.287  0.000
  0.984  0.016  0.000  0.000  0.000
  0.016  0.984  0.000  0.000  0.000
    occupations:
  0.093  0.000  0.000 -0.000 -0.000
  0.000  0.061  0.000 -0.000 -0.000
  0.000  0.000  0.061  0.000 -0.000
 -0.000 -0.000  0.000  0.001  0.000
 -0.000 -0.000 -0.000  0.000  0.001
   spin  2
    eigenvalues: 
  0.000  0.000  0.000  0.001  0.007
    eigenvectors:
  0.000  0.003  0.000  0.009  0.988
  0.001  0.004  0.251  0.738  0.006
  0.004  0.001  0.745  0.248  0.002
  0.706  0.289  0.003  0.001  0.001
  0.290  0.702  0.001  0.004  0.003
    occupations:
  0.007  0.000  0.000  0.000  0.000
  0.000  0.001  0.000  0.000  0.000
  0.000  0.000  0.001  0.000  0.000
  0.000  0.000  0.000  0.000  0.000
  0.000  0.000  0.000  0.000  0.000
atomic mag. moment =     0.206165
atom   37   Tr[ns(na)] (up, down, total) =   0.21547  0.00930  0.22477
   spin  1
    eigenvalues: 
  0.001  0.001  0.060  0.061  0.093
    eigenvectors:
  0.000  0.000  0.000  0.000  1.000
  0.000  0.000  0.999  0.001  0.000
  0.000  0.000  0.001  0.999  0.000
  0.451  0.549  0.000  0.000  0.000
  0.549  0.451  0.000  0.000  0.000
    occupations:
  0.093 -0.000 -0.000  0.000 -0.000
 -0.000  0.060  0.000 -0.000  0.000
 -0.000  0.000  0.061  0.000  0.000
  0.000 -0.000  0.000  0.001  0.000
 -0.000  0.000  0.000  0.000  0.001
   spin  2
    eigenvalues: 
  0.000  0.000  0.000  0.001  0.007
    eigenvectors:
  0.001  0.002  0.000  0.009  0.988
  0.002  0.003  0.994  0.000  0.000
  0.003  0.004  0.000  0.984  0.008
  0.397  0.592  0.000  0.007  0.004
  0.596  0.398  0.005  0.000  0.000
    occupations:
  0.007 -0.000 -0.001 -0.000  0.000
 -0.000  0.000 -0.000 -0.000 -0.000
 -0.001 -0.000  0.001  0.000 -0.000
 -0.000 -0.000  0.000  0.000  0.000
  0.000 -0.000 -0.000  0.000  0.000
atomic mag. moment =     0.206166
atom   38   Tr[ns(na)] (up, down, total) =   0.21541  0.00933  0.22473
   spin  1
    eigenvalues: 
  0.001  0.001  0.060  0.061  0.093
    eigenvectors:
  0.000  0.000  0.000  0.000  1.000
  0.000  0.000  0.249  0.751  0.000
  0.000  0.000  0.751  0.249  0.000
  0.995  0.005  0.000  0.000  0.000
  0.005  0.995  0.000  0.000  0.000
    occupations:
  0.093 -0.000  0.000 -0.000  0.000
 -0.000  0.061 -0.000  0.000  0.000
  0.000 -0.000  0.060  0.000  0.000
 -0.000  0.000  0.000  0.001  0.000
  0.000  0.000  0.000  0.000  0.001
   spin  2
    eigenvalues: 
  0.000  0.000  0.000  0.001  0.007
    eigenvectors:
  0.001  0.002  0.000  0.009  0.988
  0.005  0.002  0.251  0.735  0.006
  0.001  0.002  0.745  0.250  0.002
  0.993  0.000  0.003  0.002  0.001
  0.000  0.993  0.000  0.004  0.003
    occupations:
  0.007 -0.000  0.000  0.000 -0.000
 -0.000  0.001 -0.000 -0.000  0.000
  0.000 -0.000  0.001  0.000 -0.000
  0.000 -0.000  0.000  0.000 -0.000
 -0.000  0.000 -0.000 -0.000  0.000
atomic mag. moment =     0.206080
N of occupied +U levels =   30.659975
 --- exit write_ns ---
 --- in v_hubbard ---
Hubbard energy    1.3795
 -------

     total cpu time spent up to now is    12093.0 secs

     total energy              =   -3749.24513682 Ry
     Harris-Foulkes estimate   =  -33485.91089444 Ry
     estimated scf accuracy    <  146907.65053815 Ry

     total magnetization       =    13.54 Bohr mag/cell
     absolute magnetization    =    15.60 Bohr mag/cell

     iteration #  3     ecut=   350.00 Ry     beta= 0.40
     Davidson diagonalization with overlap
     ethr =  1.00E-02,  avg # of iterations = 31.1
 --- enter write_ns ---
 LDA+U parameters:
U( 1)     =  5.00000000
alpha( 1) =  0.00000000
atom    2   Tr[ns(na)] (up, down, total) =   0.00000  0.00000  0.00000
   spin  1
    eigenvalues: 
  0.000  0.000  0.000  0.000  0.000
    eigenvectors:
  0.054  0.004  0.163  0.768  0.012
  0.054  0.037  0.700  0.208  0.001
  0.106  0.723  0.089  0.002  0.080
  0.190  0.006  0.021  0.003  0.780
  0.596  0.230  0.027  0.020  0.128
    occupations:
  0.000 -0.000 -0.000  0.000  0.000
 -0.000  0.000 -0.000  0.000  0.000
 -0.000 -0.000  0.000  0.000 -0.000
  0.000  0.000  0.000  0.000 -0.000
  0.000  0.000 -0.000 -0.000  0.000
   spin  2
    eigenvalues: 
  0.000  0.000  0.000  0.000  0.000
    eigenvectors:
  0.029  0.018  0.032  0.002  0.918
  0.138  0.030  0.512  0.316  0.004
  0.006  0.073  0.306  0.577  0.038
  0.709  0.110  0.102  0.056  0.022
  0.118  0.768  0.048  0.049  0.017
    occupations:
  0.000 -0.000  0.000  0.000 -0.000
 -0.000  0.000  0.000 -0.000  0.000
  0.000  0.000  0.000  0.000  0.000
  0.000 -0.000  0.000  0.000  0.000
 -0.000  0.000  0.000  0.000  0.000
atomic mag. moment =     0.000000
atom    3   Tr[ns(na)] (up, down, total) =   0.00000  0.00000  0.00000
   spin  1
    eigenvalues: 
  0.000  0.000  0.000  0.000  0.000
    eigenvectors:
  0.475  0.010  0.226  0.233  0.056
  0.125  0.357  0.342  0.050  0.126
  0.000  0.063  0.389  0.519  0.029
  0.140  0.570  0.038  0.129  0.122
  0.260  0.000  0.005  0.068  0.667
    occupations:
  0.000 -0.000  0.000  0.000 -0.000
 -0.000  0.000 -0.000 -0.000 -0.000
  0.000 -0.000  0.000  0.000 -0.000
  0.000 -0.000  0.000  0.000  0.000
 -0.000 -0.000 -0.000  0.000  0.000
   spin  2
    eigenvalues: 
  0.000  0.000  0.000  0.000  0.000
    eigenvectors:
  0.001  0.037  0.076  0.514  0.371
  0.000  0.001  0.199  0.229  0.570
  0.045  0.036  0.680  0.192  0.047
  0.857  0.124  0.013  0.003  0.004
  0.097  0.801  0.032  0.062  0.008
    occupations:
  0.000  0.000  0.000  0.000  0.000
  0.000  0.000 -0.000  0.000  0.000
  0.000 -0.000  0.000 -0.000  0.000
  0.000  0.000 -0.000  0.000  0.000
  0.000  0.000  0.000  0.000  0.000
atomic mag. moment =     0.000000
atom    4   Tr[ns(na)] (up, down, total) =   0.00000  0.00000  0.00000
   spin  1
    eigenvalues: 
  0.000  0.000  0.000  0.000  0.000
    eigenvectors:
  0.044  0.014  0.012  0.320  0.610
  0.044  0.022  0.307  0.500  0.128
  0.055  0.456  0.276  0.098  0.114
  0.850  0.002  0.002  0.018  0.128
  0.007  0.506  0.403  0.064  0.020
    occupations:
  0.000 -0.000 -0.000 -0.000 -0.000
 -0.000  0.000  0.000  0.000  0.000
 -0.000  0.000  0.000  0.000 -0.000
 -0.000  0.000  0.000  0.000 -0.000
 -0.000  0.000 -0.000 -0.000  0.000
   spin  2
    eigenvalues: 
  0.000  0.000  0.000  0.000  0.000
    eigenvectors:
  0.010  0.001  0.010  0.052  0.927
  0.032  0.015  0.946  0.001  0.006
  0.013  0.000  0.000  0.940  0.047
  0.434  0.512  0.043  0.003  0.007
  0.510  0.472  0.002  0.004  0.012
    occupations:
  0.000  0.000  0.000  0.000 -0.000
  0.000  0.000 -0.000  0.000 -0.000
  0.000 -0.000  0.000  0.000 -0.000
  0.000  0.000  0.000  0.000  0.000
 -0.000 -0.000 -0.000  0.000  0.000
atomic mag. moment =     0.000000
atom    8   Tr[ns(na)] (up, down, total) =   0.00000  0.00000  0.00000
   spin  1
    eigenvalues: 
  0.000  0.000  0.000  0.000  0.000
    eigenvectors:
  0.010  0.022  0.683  0.093  0.192
  0.001  0.174  0.137  0.090  0.598
  0.115  0.005  0.123  0.744  0.013
  0.035  0.756  0.013  0.002  0.193
  0.839  0.042  0.044  0.071  0.005
    occupations:
  0.000 -0.000  0.000  0.000 -0.000
 -0.000  0.000  0.000 -0.000  0.000
  0.000  0.000  0.000  0.000  0.000
  0.000 -0.000  0.000  0.000 -0.000
 -0.000  0.000  0.000 -0.000  0.000
   spin  2
    eigenvalues: 
  0.000  0.000  0.000  0.000  0.000
    eigenvectors:
  0.002  0.164  0.079  0.710  0.045
  0.008  0.001  0.892  0.093  0.006
  0.037  0.175  0.007  0.003  0.777
  0.397  0.330  0.020  0.089  0.163
  0.556  0.329  0.002  0.104  0.008
    occupations:
  0.000 -0.000 -0.000  0.000 -0.000
 -0.000  0.000  0.000  0.000  0.000
 -0.000  0.000  0.000  0.000 -0.000
  0.000  0.000  0.000  0.000 -0.000
 -0.000  0.000 -0.000 -0.000  0.000
atomic mag. moment =     0.000000
atom    9   Tr[ns(na)] (up, down, total) =   0.00000  0.00000  0.00000
   spin  1
    eigenvalues: 
  0.000  0.000  0.000  0.000  0.000
    eigenvectors:
  0.088  0.055  0.149  0.444  0.263
  0.677  0.002  0.080  0.040  0.201
  0.000  0.080  0.089  0.512  0.319
  0.206  0.010  0.669  0.001  0.114
  0.029  0.852  0.013  0.004  0.102
    occupations:
  0.000 -0.000 -0.000  0.000 -0.000
 -0.000  0.000  0.000 -0.000  0.000
 -0.000  0.000  0.000 -0.000  0.000
  0.000 -0.000 -0.000  0.000 -0.000
 -0.000  0.000  0.000 -0.000  0.000
   spin  2
    eigenvalues: 
  0.000  0.000  0.000  0.000  0.000
    eigenvectors:
  0.005  0.085  0.157  0.687  0.066
  0.060  0.014  0.733  0.081  0.113
  0.006  0.894  0.001  0.094  0.006
  0.752  0.002  0.101  0.037  0.108
  0.177  0.005  0.009  0.101  0.708
    occupations:
  0.000 -0.000  0.000  0.000  0.000
 -0.000  0.000 -0.000 -0.000 -0.000
  0.000 -0.000  0.000 -0.000  0.000
  0.000 -0.000 -0.000  0.000  0.000
  0.000 -0.000  0.000  0.000  0.000
atomic mag. moment =     0.000000
atom   11   Tr[ns(na)] (up, down, total) =   0.00000  0.00000  0.00000
   spin  1
    eigenvalues: 
  0.000  0.000  0.000  0.000  0.000
    eigenvectors:
  0.000  0.244  0.009  0.002  0.745
  0.074  0.000  0.345  0.571  0.010
  0.151  0.031  0.414  0.399  0.005
  0.086  0.684  0.001  0.019  0.210
  0.688  0.041  0.231  0.009  0.031
    occupations:
  0.000  0.000 -0.000  0.000  0.000
  0.000  0.000 -0.000 -0.000  0.000
 -0.000 -0.000  0.000 -0.000  0.000
  0.000 -0.000 -0.000  0.000  0.000
  0.000  0.000  0.000  0.000  0.000
   spin  2
    eigenvalues: 
  0.000  0.000  0.000  0.000  0.000
    eigenvectors:
  0.196  0.116  0.004  0.237  0.447
  0.008  0.081  0.775  0.119  0.018
  0.111  0.003  0.104  0.396  0.387
  0.654  0.141  0.015  0.189  0.002
  0.032  0.660  0.102  0.060  0.147
    occupations:
  0.000  0.000  0.000 -0.000 -0.000
  0.000  0.000 -0.000 -0.000  0.000
  0.000 -0.000  0.000  0.000 -0.000
 -0.000 -0.000  0.000  0.000  0.000
 -0.000  0.000 -0.000  0.000  0.000
atomic mag. moment =     0.000000
atom   15   Tr[ns(na)] (up, down, total) =   4.83622  4.89133  9.72755
   spin  1
    eigenvalues: 
  0.961  0.963  0.963  0.975  0.975
    eigenvectors:
  0.002  0.990  0.000  0.000  0.008
  0.247  0.000  0.751  0.000  0.001
  0.751  0.002  0.247  0.000  0.000
  0.000  0.002  0.000  0.784  0.213
  0.000  0.006  0.001  0.216  0.777
    occupations:
  0.963  0.000 -0.000 -0.001 -0.001
  0.000  0.963  0.001  0.000  0.000
 -0.000  0.001  0.961  0.000  0.000
 -0.001  0.000  0.000  0.975  0.000
 -0.001  0.000  0.000  0.000  0.975
   spin  2
    eigenvalues: 
  0.973  0.974  0.975  0.985  0.985
    eigenvectors:
  0.998  0.000  0.000  0.001  0.000
  0.000  0.248  0.752  0.000  0.000
  0.000  0.752  0.247  0.000  0.000
  0.000  0.000  0.000  0.018  0.981
  0.001  0.000  0.000  0.980  0.019
    occupations:
  0.973 -0.000  0.000 -0.000 -0.000
 -0.000  0.975  0.001  0.000  0.000
  0.000  0.001  0.974  0.000  0.000
 -0.000  0.000  0.000  0.985 -0.000
 -0.000  0.000  0.000 -0.000  0.985
atomic mag. moment =    -0.055112
atom   16   Tr[ns(na)] (up, down, total) =   4.83629  4.89112  9.72741
   spin  1
    eigenvalues: 
[...]
    occupations:
  0.962  0.001  0.001 -0.001 -0.002
  0.001  0.973 -0.002 -0.002 -0.002
  0.001 -0.002  0.975 -0.001 -0.002
 -0.001 -0.002 -0.001  0.973 -0.000
 -0.002 -0.002 -0.002 -0.000  0.973
   spin  2
    eigenvalues: 
  0.956  0.966  0.970  0.971  0.974
    eigenvectors:
  0.934  0.018  0.000  0.049  0.000
  0.000  0.478  0.004  0.276  0.243
  0.000  0.163  0.001  0.078  0.757
  0.018  0.048  0.777  0.157  0.000
  0.048  0.293  0.218  0.441  0.000
    occupations:
  0.957  0.001  0.001 -0.002 -0.003
  0.001  0.969 -0.003 -0.001 -0.002
  0.001 -0.003  0.972 -0.000 -0.001
 -0.002 -0.001 -0.000  0.969 -0.001
 -0.003 -0.002 -0.001 -0.001  0.968
atomic mag. moment =     0.020824
atom    8   Tr[ns(na)] (up, down, total) =   4.48192  4.33741  8.81933
   spin  1
    eigenvalues: 
  0.837  0.900  0.901  0.921  0.924
    eigenvectors:
  0.069  0.474  0.019  0.438  0.000
  0.000  0.002  0.063  0.001  0.934
  0.725  0.233  0.009  0.034  0.000
  0.206  0.256  0.009  0.528  0.000
  0.000  0.035  0.900  0.000  0.065
    occupations:
  0.905 -0.000  0.012  0.017  0.000
 -0.000  0.922  0.000  0.000 -0.006
  0.012  0.000  0.855 -0.027  0.000
  0.017  0.000 -0.027  0.898 -0.000
  0.000 -0.006  0.000 -0.000  0.902
   spin  2
    eigenvalues: 
  0.789  0.870  0.874  0.897  0.907
    eigenvectors:
  0.088  0.000  0.474  0.438  0.000
  0.000  0.016  0.000  0.000  0.983
  0.722  0.000  0.257  0.022  0.000
  0.191  0.000  0.269  0.540  0.000
  0.000  0.983  0.001  0.000  0.017
    occupations:
  0.877 -0.000  0.019  0.022 -0.000
 -0.000  0.906  0.000 -0.000 -0.005
  0.019  0.000  0.813 -0.034 -0.000
  0.022 -0.000 -0.034  0.870  0.000
 -0.000 -0.005 -0.000  0.000  0.871
atomic mag. moment =     0.144514
atom    9   Tr[ns(na)] (up, down, total) =   4.47872  4.33381  8.81253
   spin  1
    eigenvalues: 
  0.836  0.899  0.900  0.920  0.923
    eigenvectors:
  0.070  0.486  0.007  0.437  0.000
  0.543  0.191  0.006  0.022  0.238
  0.181  0.049  0.061  0.013  0.696
  0.052  0.125  0.647  0.132  0.044
  0.155  0.149  0.279  0.397  0.021
    occupations:
  0.904 -0.010 -0.006 -0.009 -0.015
 -0.010  0.871 -0.029 -0.009 -0.022
 -0.006 -0.029  0.905 -0.011 -0.009
 -0.009 -0.009 -0.011  0.900 -0.002
 -0.015 -0.022 -0.009 -0.002  0.899
   spin  2
    eigenvalues: 
  0.788  0.870  0.874  0.896  0.906
    eigenvectors:
  0.088  0.000  0.476  0.435  0.000
  0.541  0.002  0.195  0.018  0.244
  0.181  0.014  0.062  0.004  0.739
  0.047  0.721  0.082  0.137  0.013
  0.143  0.262  0.186  0.406  0.003
    occupations:
  0.876 -0.017 -0.010 -0.011 -0.019
 -0.017  0.835 -0.041 -0.013 -0.027
 -0.010 -0.041  0.882 -0.012 -0.013
 -0.011 -0.013 -0.012  0.870 -0.000
 -0.019 -0.027 -0.013 -0.000  0.870
atomic mag. moment =     0.144912
atom   11   Tr[ns(na)] (up, down, total) =   4.47883  4.33263  8.81146
   spin  1
    eigenvalues: 
  0.836  0.899  0.900  0.920  0.923
    eigenvectors:
  0.070  0.493  0.000  0.436  0.000
  0.541  0.186  0.014  0.026  0.233
  0.181  0.058  0.053  0.008  0.701
  0.052  0.078  0.687  0.133  0.051
  0.156  0.185  0.246  0.397  0.016
    occupations:
  0.904  0.010 -0.006 -0.009  0.015
  0.010  0.871  0.029  0.009 -0.022
 -0.006  0.029  0.905 -0.011  0.009
 -0.009  0.009 -0.011  0.901  0.002
  0.015 -0.022  0.009  0.002  0.898
   spin  2
    eigenvalues: 
  0.787  0.870  0.873  0.896  0.906
    eigenvectors:
  0.090  0.000  0.472  0.438  0.000
  0.541  0.003  0.194  0.016  0.246
  0.180  0.013  0.064  0.005  0.738
  0.047  0.730  0.075  0.136  0.012
  0.142  0.254  0.195  0.405  0.004
    occupations:
  0.876  0.017 -0.010 -0.011  0.019
  0.017  0.835  0.041  0.013 -0.027
 -0.010  0.041  0.882 -0.012  0.013
 -0.011  0.013 -0.012  0.870  0.000
  0.019 -0.027  0.013  0.000  0.870
atomic mag. moment =     0.146197
atom   15   Tr[ns(na)] (up, down, total) =   2.43860  1.32061  3.75921
   spin  1
    eigenvalues: 
  0.450  0.481  0.487  0.490  0.530
    eigenvectors:
  0.280  0.648  0.004  0.068  0.000
  0.501  0.196  0.190  0.003  0.110
  0.195  0.107  0.361  0.005  0.332
  0.002  0.021  0.381  0.188  0.408
  0.022  0.029  0.064  0.736  0.149
    occupations:
  0.473 -0.012 -0.007 -0.001 -0.005
 -0.012  0.472 -0.020 -0.010  0.002
 -0.007 -0.020  0.494  0.015 -0.011
 -0.001 -0.010  0.015  0.505 -0.010
 -0.005  0.002 -0.011 -0.010  0.494
   spin  2
    eigenvalues: 
  0.218  0.226  0.276  0.278  0.322
    eigenvectors:
  0.000  0.012  0.029  0.400  0.559
  0.225  0.094  0.006  0.409  0.266
  0.698  0.018  0.121  0.079  0.084
  0.065  0.228  0.666  0.025  0.016
  0.012  0.648  0.178  0.088  0.075
    occupations:
  0.302  0.016  0.009  0.007  0.014
  0.016  0.271  0.028  0.003  0.022
  0.009  0.028  0.239  0.017  0.004
  0.007  0.003  0.017  0.262 -0.016
  0.014  0.022  0.004 -0.016  0.247
atomic mag. moment =     1.117987
atom   16   Tr[ns(na)] (up, down, total) =   2.39157  1.30263  3.69420
   spin  1
    eigenvalues: 
  0.445  0.471  0.477  0.480  0.519
    eigenvectors:
  0.256  0.476  0.054  0.214  0.000
  0.000  0.001  0.461  0.107  0.431
  0.731  0.225  0.019  0.025  0.000
  0.012  0.295  0.097  0.595  0.001
  0.001  0.003  0.368  0.060  0.568
    occupations:
  0.466  0.000  0.012  0.005 -0.001
  0.000  0.495 -0.000 -0.000  0.021
  0.012 -0.000  0.452 -0.001  0.001
  0.005 -0.000 -0.001  0.477 -0.002
 -0.001  0.021  0.001 -0.002  0.501
   spin  2
    eigenvalues: 
  0.213  0.230  0.268  0.273  0.319
    eigenvectors:
  0.000  0.011  0.002  0.458  0.529
  0.935  0.000  0.065  0.000  0.000
  0.000  0.115  0.000  0.507  0.378
  0.000  0.872  0.002  0.032  0.094
  0.065  0.002  0.930  0.003  0.000
    occupations:
  0.297 -0.000 -0.019 -0.014  0.000
 -0.000  0.217 -0.000 -0.001  0.013
 -0.019 -0.000  0.285  0.022  0.001
 -0.014 -0.001  0.022  0.240 -0.002
  0.000  0.013  0.001 -0.002  0.264
atomic mag. moment =     1.088938
atom   17   Tr[ns(na)] (up, down, total) =   2.53681  1.37386  3.91066
   spin  1
    eigenvalues: 
  0.463  0.501  0.508  0.512  0.553
    eigenvectors:
  0.258  0.432  0.308  0.002  0.000
  0.528  0.178  0.017  0.136  0.141
  0.184  0.083  0.012  0.314  0.408
  0.007  0.096  0.164  0.404  0.329
  0.024  0.211  0.500  0.144  0.122
    occupations:
  0.493  0.015 -0.008 -0.003  0.006
  0.015  0.490  0.026  0.011  0.002
 -0.008  0.026  0.519  0.014  0.011
 -0.003  0.011  0.014  0.523  0.012
  0.006  0.002  0.011  0.012  0.511
   spin  2
    eigenvalues: 
  0.230  0.237  0.284  0.291  0.331
    eigenvectors:
  0.000  0.010  0.000  0.379  0.611
  0.250  0.075  0.020  0.426  0.230
  0.669  0.042  0.061  0.151  0.078
  0.051  0.237  0.682  0.012  0.018
  0.031  0.636  0.237  0.032  0.063
    occupations:
  0.315 -0.014  0.008  0.007 -0.012
 -0.014  0.281 -0.027 -0.004  0.022
  0.008 -0.027  0.251  0.017 -0.004
  0.007 -0.004  0.017  0.271  0.015
 -0.012  0.022 -0.004  0.015  0.255
atomic mag. moment =     1.162952
atom   23   Tr[ns(na)] (up, down, total) =   3.04834  2.86015  5.90848
   spin  1
    eigenvalues: 
  0.413  0.529  0.572  0.668  0.867
    eigenvectors:
  0.028  0.000  0.001  0.215  0.756
  0.065  0.123  0.162  0.525  0.125
  0.026  0.312  0.402  0.222  0.038
  0.161  0.463  0.354  0.006  0.017
  0.721  0.102  0.082  0.032  0.064
    occupations:
  0.811 -0.052  0.025  0.040 -0.080
 -0.052  0.644 -0.055 -0.045  0.068
  0.025 -0.055  0.587  0.005 -0.052
  0.040 -0.045  0.005  0.532  0.034
 -0.080  0.068 -0.052  0.034  0.475
   spin  2
    eigenvalues: 
  0.408  0.471  0.535  0.614  0.831
    eigenvectors:
  0.045  0.001  0.002  0.185  0.767
  0.052  0.035  0.163  0.644  0.107
  0.008  0.154  0.647  0.154  0.036
  0.380  0.467  0.120  0.009  0.023
  0.514  0.343  0.068  0.009  0.066
    occupations:
  0.771 -0.052  0.033  0.051 -0.084
 -0.052  0.609 -0.045 -0.047  0.044
  0.033 -0.045  0.547  0.001 -0.041
  0.051 -0.047  0.001  0.465  0.018
 -0.084  0.044 -0.041  0.018  0.468
atomic mag. moment =     0.188189
atom   24   Tr[ns(na)] (up, down, total) =   3.05012  2.82972  5.87984
   spin  1
    eigenvalues: 
  0.424  0.520  0.570  0.670  0.867
    eigenvectors:
  0.033  0.000  0.000  0.218  0.749
  0.002  0.346  0.652  0.000  0.000
  0.089  0.001  0.000  0.746  0.163
  0.875  0.000  0.002  0.034  0.088
  0.000  0.653  0.345  0.002  0.000
    occupations:
  0.809 -0.002 -0.056 -0.092 -0.001
 -0.002  0.552  0.001 -0.006 -0.024
 -0.056  0.001  0.680  0.092 -0.006
 -0.092 -0.006  0.092  0.472  0.001
 -0.001 -0.024 -0.006  0.001  0.537
   spin  2
    eigenvalues: 
  0.371  0.487  0.529  0.613  0.829
    eigenvectors:
  0.037  0.000  0.001  0.206  0.756
  0.000  0.164  0.833  0.003  0.000
  0.072  0.001  0.001  0.766  0.160
  0.888  0.002  0.001  0.025  0.084
  0.003  0.833  0.164  0.000  0.000
    occupations:
  0.767  0.004 -0.063 -0.098  0.004
  0.004  0.522  0.004 -0.001 -0.015
 -0.063  0.004  0.630  0.086 -0.001
 -0.098 -0.001  0.086  0.416  0.006
  0.004 -0.015 -0.001  0.006  0.494
atomic mag. moment =     0.220402
atom   25   Tr[ns(na)] (up, down, total) =   3.02768  2.87555  5.90323
   spin  1
    eigenvalues: 
  0.416  0.501  0.576  0.667  0.867
    eigenvectors:
  0.035  0.000  0.003  0.210  0.753
  0.071  0.055  0.228  0.525  0.121
  0.012  0.242  0.477  0.229  0.040
  0.204  0.531  0.243  0.000  0.021
  0.678  0.172  0.049  0.036  0.065
    occupations:
  0.809  0.049  0.028  0.051  0.080
  0.049  0.644  0.056  0.047  0.066
  0.028  0.056  0.588 -0.010  0.053
  0.051  0.047 -0.010  0.510 -0.026
  0.080  0.066  0.053 -0.026  0.477
   spin  2
    eigenvalues: 
  0.413  0.474  0.541  0.615  0.831
    eigenvectors:
  0.048  0.000  0.000  0.184  0.768
  0.038  0.060  0.186  0.607  0.110
  0.017  0.130  0.625  0.192  0.035
  0.227  0.607  0.134  0.009  0.022
  0.670  0.203  0.055  0.007  0.065
    occupations:
  0.771  0.054  0.030  0.047  0.086
  0.054  0.609  0.046  0.045  0.042
  0.030  0.046  0.555  0.000  0.041
  0.047  0.045  0.000  0.479 -0.015
  0.086  0.042  0.041 -0.015  0.461
atomic mag. moment =     0.152131
atom   29   Tr[ns(na)] (up, down, total) =   4.22022  3.92062  8.14084
   spin  1
    eigenvalues: 
  0.762  0.844  0.858  0.872  0.885
    eigenvectors:
  0.080  0.642  0.000  0.277  0.000
  0.000  0.000  0.032  0.000  0.968
  0.723  0.215  0.000  0.062  0.000
  0.197  0.142  0.000  0.661  0.000
  0.000  0.000  0.968  0.000  0.032
    occupations:
  0.845 -0.000  0.016  0.022  0.000
 -0.000  0.884 -0.000 -0.000 -0.005
  0.016 -0.000  0.786 -0.037  0.000
  0.022 -0.000 -0.037  0.846 -0.000
  0.000 -0.005  0.000 -0.000  0.858
   spin  2
    eigenvalues: 
  0.685  0.774  0.791  0.820  0.851
    eigenvectors:
  0.143  0.000  0.712  0.145  0.000
  0.000  0.005  0.000  0.000  0.995
  0.695  0.000  0.239  0.066  0.000
  0.162  0.000  0.049  0.789  0.000
  0.000  0.995  0.000  0.000  0.005
    occupations:
  0.780  0.000  0.031  0.026 -0.000
  0.000  0.850 -0.000 -0.000 -0.005
  0.031 -0.000  0.719 -0.042 -0.000
  0.026 -0.000 -0.042  0.797  0.000
 -0.000 -0.005 -0.000  0.000  0.774
atomic mag. moment =     0.299604
atom   30   Tr[ns(na)] (up, down, total) =   4.21388  3.91029  8.12416
   spin  1
    eigenvalues: 
  0.759  0.843  0.857  0.871  0.884
    eigenvectors:
  0.081  0.649  0.000  0.270  0.000
  0.542  0.159  0.008  0.047  0.244
  0.182  0.054  0.023  0.016  0.725
  0.049  0.036  0.740  0.152  0.023
  0.146  0.102  0.229  0.516  0.008
    occupations:
  0.844 -0.014 -0.008 -0.011 -0.020
 -0.014  0.809 -0.043 -0.014 -0.029
 -0.008 -0.043  0.858 -0.013 -0.014
 -0.011 -0.014 -0.013  0.854 -0.005
 -0.020 -0.029 -0.014 -0.005  0.849
   spin  2
    eigenvalues: 
  0.682  0.772  0.788  0.819  0.850
    eigenvectors:
  0.142  0.000  0.722  0.136  0.000
  0.521  0.000  0.175  0.050  0.253
  0.176  0.004  0.059  0.019  0.743
  0.040  0.738  0.016  0.203  0.003
  0.121  0.257  0.028  0.593  0.002
    occupations:
  0.777 -0.026 -0.015 -0.013 -0.023
 -0.026  0.750 -0.058 -0.016 -0.033
 -0.015 -0.058  0.816 -0.015 -0.016
 -0.013 -0.016 -0.015  0.778  0.010
 -0.023 -0.033 -0.016  0.010  0.789
atomic mag. moment =     0.303591
atom   32   Tr[ns(na)] (up, down, total) =   4.20944  3.89768  8.10712
   spin  1
    eigenvalues: 
  0.758  0.842  0.856  0.870  0.883
    eigenvectors:
  0.082  0.648  0.000  0.270  0.000
  0.541  0.165  0.008  0.044  0.242
  0.179  0.051  0.023  0.019  0.727
  0.049  0.036  0.735  0.158  0.022
  0.148  0.100  0.234  0.509  0.009
    occupations:
  0.843  0.015 -0.009 -0.011  0.020
  0.015  0.808  0.043  0.014 -0.029
 -0.009  0.043  0.858 -0.013  0.014
 -0.011  0.014 -0.013  0.853  0.005
  0.020 -0.029  0.014  0.005  0.848
   spin  2
    eigenvalues: 
  0.679  0.770  0.785  0.816  0.848
    eigenvectors:
  0.141  0.000  0.714  0.145  0.000
  0.526  0.001  0.176  0.046  0.251
  0.175  0.004  0.060  0.018  0.744
  0.039  0.746  0.014  0.198  0.003
  0.119  0.249  0.037  0.593  0.002
    occupations:
  0.775  0.026 -0.015 -0.013  0.023
  0.026  0.747  0.059  0.016 -0.033
 -0.015  0.059  0.814 -0.015  0.016
 -0.013  0.016 -0.015  0.776 -0.010
  0.023 -0.033  0.016 -0.010  0.787
atomic mag. moment =     0.311752
atom   36   Tr[ns(na)] (up, down, total) =   3.70048  3.41881  7.11930
   spin  1
    eigenvalues: 
  0.615  0.691  0.731  0.790  0.873
    eigenvectors:
  0.074  0.010  0.020  0.092  0.804
  0.000  0.556  0.137  0.218  0.089
  0.000  0.200  0.083  0.684  0.033
  0.464  0.103  0.414  0.005  0.014
  0.462  0.130  0.346  0.001  0.060
    occupations:
  0.842  0.033  0.006  0.039  0.052
  0.033  0.734  0.044 -0.006  0.021
  0.006  0.044  0.768  0.006 -0.001
  0.039 -0.006  0.006  0.675 -0.045
  0.052  0.021 -0.001 -0.045  0.681
   spin  2
    eigenvalues: 
  0.554  0.637  0.689  0.720  0.819
    eigenvectors:
  0.086  0.003  0.064  0.046  0.802
  0.000  0.140  0.741  0.046  0.073
  0.000  0.119  0.019  0.822  0.039
  0.487  0.363  0.111  0.022  0.018
  0.428  0.375  0.065  0.064  0.068
    occupations:
  0.783  0.028  0.018  0.041  0.059
  0.028  0.693  0.020 -0.005  0.020
  0.018  0.020  0.713  0.018 -0.012
  0.041 -0.005  0.018  0.607 -0.039
  0.059  0.020 -0.012 -0.039  0.623
atomic mag. moment =     0.281669
atom   37   Tr[ns(na)] (up, down, total) =   4.08460  3.70833  7.79293
   spin  1
    eigenvalues: 
  0.751  0.785  0.818  0.852  0.879
    eigenvectors:
  0.012  0.001  0.002  0.412  0.573
  0.001  0.008  0.000  0.577  0.414
  0.002  0.006  0.990  0.001  0.001
  0.943  0.043  0.001  0.006  0.006
  0.043  0.941  0.007  0.004  0.005
    occupations:
  0.866 -0.013  0.002 -0.013  0.001
 -0.013  0.862 -0.000 -0.000 -0.008
  0.002 -0.000  0.818  0.002  0.003
 -0.013 -0.000  0.002  0.754 -0.007
  0.001 -0.008  0.003 -0.007  0.784
   spin  2
    eigenvalues: 
  0.659  0.714  0.741  0.777  0.818
    eigenvectors:
  0.023  0.003  0.016  0.399  0.558
  0.001  0.001  0.000  0.575  0.423
  0.000  0.162  0.829  0.003  0.007
  0.941  0.027  0.002  0.019  0.011
  0.035  0.807  0.153  0.004  0.002
    occupations:
  0.796 -0.021  0.005 -0.021  0.003
 -0.021  0.794 -0.003 -0.001  0.000
  0.005 -0.003  0.737 -0.002  0.010
 -0.021 -0.001 -0.002  0.665 -0.011
  0.003  0.000  0.010 -0.011  0.717
atomic mag. moment =     0.376275
atom   38   Tr[ns(na)] (up, down, total) =   3.49913  3.21927  6.71840
   spin  1
    eigenvalues: 
  0.573  0.591  0.663  0.812  0.860
    eigenvectors:
  0.067  0.026  0.063  0.028  0.816
  0.001  0.009  0.794  0.115  0.082
  0.008  0.001  0.142  0.842  0.007
  0.778  0.185  0.000  0.015  0.022
  0.146  0.779  0.001  0.001  0.073
    occupations:
  0.820 -0.040 -0.006  0.045 -0.068
 -0.040  0.696 -0.051 -0.001  0.021
 -0.006 -0.051  0.789 -0.022  0.001
  0.045 -0.001 -0.022  0.586 -0.005
 -0.068  0.021  0.001 -0.005  0.608
   spin  2
    eigenvalues: 
  0.496  0.533  0.653  0.733  0.803
    eigenvectors:
  0.077  0.023  0.049  0.007  0.844
  0.000  0.006  0.842  0.099  0.053
  0.004  0.001  0.107  0.887  0.001
  0.696  0.277  0.002  0.003  0.022
  0.223  0.693  0.001  0.003  0.080
    occupations:
  0.766 -0.027  0.001  0.047 -0.075
 -0.027  0.668 -0.025 -0.002  0.017
  0.001 -0.025  0.723 -0.010  0.011
  0.047 -0.002 -0.010  0.514  0.003
 -0.075  0.017  0.011  0.003  0.547
atomic mag. moment =     0.279856
N of occupied +U levels =  130.531560
 --- exit write_ns ---
 --- in v_hubbard ---
Hubbard energy    7.3882
 -------

     total cpu time spent up to now is    78971.4 secs

     total energy              =   -5520.83668926 Ry
     Harris-Foulkes estimate   =   -5528.45376767 Ry
     estimated scf accuracy    <     203.62858995 Ry

     total magnetization       =     5.83 Bohr mag/cell
     absolute magnetization    =     7.45 Bohr mag/cell

     iteration # 24     ecut=   350.00 Ry     beta= 0.40
     Davidson diagonalization with overlap

     Maximum CPU time exceeded

     max_seconds     =   79200.00
     elapsed seconds =   79213.95
     Calculation stopped in k-point loop, point #    13
     Calculation stopped in scf loop at iteration #    23

     Writing output data file pwscf.save/
 
     init_run     :    315.53s CPU    320.59s WALL (       1 calls)
     electrons    :  78122.03s CPU  78898.16s WALL (       1 calls)

     Called by init_run:
     wfcinit      :    307.68s CPU    312.51s WALL (       1 calls)
     wfcinit:atom :      1.07s CPU      2.19s WALL (      26 calls)
     wfcinit:wfcr :    287.28s CPU    289.61s WALL (      26 calls)
     potinit      :      2.36s CPU      2.39s WALL (       1 calls)
     hinit0       :      1.59s CPU      1.74s WALL (       1 calls)

     Called by electrons:
     c_bands      :  75889.88s CPU  76753.07s WALL (      24 calls)
     sum_band     :   2243.99s CPU   2256.90s WALL (      23 calls)
     v_of_rho     :      4.38s CPU      4.39s WALL (      24 calls)
     v_h          :      0.89s CPU      0.90s WALL (      24 calls)
     v_xc         :      3.49s CPU      3.48s WALL (      24 calls)
     mix_rho      :      8.42s CPU      9.30s WALL (      23 calls)

     Called by c_bands:
     init_us_2    :     30.27s CPU     30.43s WALL (    1261 calls)
     cegterg      :  75747.33s CPU  76493.08s WALL (     864 calls)

     Called by sum_band:

     Called by *egterg:
     h_psi        :  50214.42s CPU  50479.03s WALL (   12001 calls)
     g_psi        :    229.50s CPU    230.68s WALL (   11111 calls)
     cdiaghg      :   2911.30s CPU   2921.45s WALL (   11975 calls)
     cegterg:over :   8786.12s CPU   8848.38s WALL (   11111 calls)
     cegterg:upda :   8729.73s CPU   8902.04s WALL (   11111 calls)
     cegterg:last :   4343.30s CPU   4411.97s WALL (    2536 calls)
     cdiaghg:chol :     98.03s CPU     98.94s WALL (   11975 calls)
     cdiaghg:inve :     89.93s CPU     90.03s WALL (   11975 calls)
     cdiaghg:para :    592.90s CPU    598.54s WALL (   23950 calls)

     Called by h_psi:
     h_psi:pot    :  44415.38s CPU  44537.92s WALL (   12001 calls)
     h_psi:calbec :   1771.01s CPU   1778.82s WALL (   12001 calls)
     vloc_psi     :  40855.94s CPU  40960.70s WALL (   12001 calls)
     add_vuspsi   :   1788.27s CPU   1798.29s WALL (   12001 calls)
     vhpsi        :   5594.74s CPU   5606.86s WALL (   12001 calls)

     General routines
     calbec       :   2562.47s CPU   2571.74s WALL (   24626 calls)
     fft          :      4.18s CPU      4.33s WALL (     121 calls)
     ffts         :      1.15s CPU      1.15s WALL (      46 calls)
     fftw         :  38735.57s CPU  38808.39s WALL ( 3504938 calls)
     davcio       :      0.35s CPU     39.93s WALL (      70 calls)
 
     Parallel routines
     fft_scatt_xy :   9372.67s CPU   9389.20s WALL ( 3505105 calls)
     fft_scatt_yz :  13788.46s CPU  13818.55s WALL ( 3505105 calls)

     Hubbard U routines
     new_ns       :     74.64s CPU     79.53s WALL (      23 calls)
     vhpsi        :   5594.74s CPU   5606.86s WALL (   12001 calls)
 
     PWSCF        :    21h47m CPU       47h22m WALL

       2h
 
   This run was terminated on:  11:46:53  18Sep2020            

=------------------------------------------------------------------------------=
   JOB DONE.
=------------------------------------------------------------------------------=
