  <PP_INFO>

############################################################
#    Opium Parameter File                                  #
############################################################
#-----------------------------------------------------------
#Command line   : /home/8gb/Codes/src/opium-modified/opium sn sn.log ae ps nl tc2 ke upf qmcpack rpt 
 
#Opium version  : 4.1 
#Compile Host   : oahu 
#Compile OS     : Linux 4.15.0-52-generic x86_64 
#Compile Date   : Tue Jul  2 12:10:03 EDT 2019 
#-----------------------------------------------------------
#Execution Host : oahu 
#Execution Date : Fri Jun 19 14:35:39 2020
 
#-----------------------------------------------------------
############################################################
[Atom]
Sn
12            
100   2.00   -    
200   2.00   - 
210   6.00   - 
300   2.00   - 
310   6.00   - 
320  10.00   - 
400   2.00   - 
410   6.00   - 
420  10.00   - 
500   2.00   - 
510   1.00   - 
520   0.10   -


[Pseudo]
3 2.5 2.5 2.5
g

[KBdesign]
s

[Relativity]
nrl

[Gaussinfo]
4 3
2 2 4
2 2.01380769   58.04190484 
2 0.92346533   -17.95660523 
2 1.63883815   43.68447157 
2 0.92346533   -17.95660523 
2 0.92346533   17.95660523 
1 0.61334103   4.00000000  
3 5.67826592   2.45336413  
2 0.86945138   -9.33070594 

[XC]
pbe

[Configs]
5
#
500   2.00   -
510   1.00   -
520   0.00   -
#
500   2.00   -
510   0.00   -
520   0.00   -
#
500   1.00   -
510   0.00   -
520   0.00   -
#
500   2.00   -
510   1.00   -
520   0.00   -
#
500   1.00   -
510   1.00   -
520   1.00   -
############################################################
  </PP_INFO>



<PP_HEADER>
   0         Version Number
   Sn        Element
   NC        Norm - Conserving pseudopotential
    F      Nonlinear Core Correction
SLA  PW   PBE  PBE     PBE  Exchange-Correlation functional
 4          Z valence
 0          Total energy
 0.000000   0.000000     Suggested cutoff for wfc and rho
 2           Max angular momentum component
 1177           Number of points in mesh
 3  2     Number of Wavefuncitons, Number of Projectors
 Wavefunctions         nl  l   occ
                       S  0  2.000000
                       P  1  1.000000
                       D  2  0.100000
</PP_HEADER>
<PP_MESH>
  <PP_R>
 2.7144176165949063e-05  2.7499354110671797e-05  2.7859179511690362e-05  2.8223713180353939e-05 
 2.8593016723720165e-05  2.8967152554966871e-05  2.9346183903939965e-05  2.9730174827839585e-05 
 3.0119190222045798e-05  3.0513295831086123e-05  3.0912558259746500e-05  3.1317044984327656e-05 
 3.1726824364048752e-05  3.2141965652600291e-05  3.2562539009848132e-05  3.2988615513690604e-05 
 3.3420267172070988e-05  3.3857566935146918e-05  3.4300588707619173e-05  3.4749407361221729e-05 
 3.5204098747375291e-05  3.5664739710006318e-05  3.6131408098533865e-05  3.6604182781026341e-05 
 3.7083143657530279e-05  3.7568371673573812e-05  3.8059948833846531e-05  3.8557958216058526e-05 
 3.9062483984980714e-05  3.9573611406668860e-05  4.0091426862873742e-05  4.0616017865639935e-05 
 4.1147473072095499e-05  4.1685882299435184e-05  4.2231336540099908e-05  4.2783927977154571e-05 
 4.3343749999867266e-05  4.3910897219492249e-05  4.4485465485259514e-05  4.5067551900573495e-05 
 4.5657254839423815e-05  4.6254673963010713e-05  4.6859910236587926e-05  4.7473065946526239e-05 
 4.8094244717599996e-05  4.8723551530499989e-05  4.9361092739575409e-05  5.0006976090807988e-05 
 5.0661310740021349e-05  5.1324207271328646e-05  5.1995777715821328e-05  5.2676135570502966e-05 
 5.3365395817470320e-05  5.4063674943345626e-05  5.4771090958963134e-05  5.5487763419313204e-05 
 5.6213813443747391e-05  5.6949363736447876e-05  5.7694538607164809e-05  5.8449463992225001e-05 
 5.9214267475815198e-05  5.9989078311544496e-05  6.0774027444288247e-05  6.1569247532318163e-05 
 6.2374872969721788e-05  6.3191039909115535e-05  6.4017886284654723e-05  6.4855551835344823e-05 
 6.5704178128657528e-05  6.6563908584456281e-05  6.7434888499234342e-05  6.8317265070670346e-05 
 6.9211187422504977e-05  7.0116806629743351e-05  7.1034275744186908e-05  7.1963749820299711e-05 
 7.2905385941412801e-05  7.3859343246271886e-05  7.4825782955932025e-05  7.5804868401004258e-05 
 7.6796765049259175e-05  7.7801640533591156e-05  7.8819664680348730e-05  7.9851009538035731e-05 
 8.0895849406387773e-05  8.1954360865829509e-05  8.3026722807316808e-05  8.4113116462570191e-05 
 8.5213725434703098e-05  8.6328735729251371e-05  8.7458335785608644e-05  8.8602716508872961e-05 
 8.9762071302110347e-05  9.0936596099040190e-05  9.2126489397148653e-05  9.3331952291235198e-05 
 9.4553188507398114e-05  9.5790404437464451e-05  9.7043809173871123e-05  9.8313614545001861e-05 
 9.9600035150986595e-05  1.0090328839996959e-04  1.0222359454485173e-04  1.0356117672051411e-04 
 1.0491626098152779e-04  1.0628907634035819e-04  1.0767985480606840e-04  1.0908883142352929e-04 
 1.1051624431314275e-04  1.1196233471108447e-04  1.1342734701007356e-04  1.1491152880067541e-04 
 1.1641513091314513e-04  1.1793840745981844e-04  1.1948161587805739e-04  1.2104501697375742e-04 
 1.2262887496542488e-04  1.2423345752883008e-04  1.2585903584224527e-04  1.2750588463227450e-04 
 1.2917428222028294e-04  1.3086451056943399e-04  1.3257685533234138e-04  1.3431160589934567e-04 
 1.3606905544742153e-04  1.3784950098972554e-04  1.3965324342579200e-04  1.4148058759238559e-04 
 1.4333184231501980e-04  1.4520732046014890e-04  1.4710733898804326e-04  1.4903221900635627e-04 
 1.5098228582439258e-04  1.5295786900808552e-04  1.5495930243569539e-04  1.5698692435423499e-04 
 1.5904107743663454e-04  1.6112210883965404e-04  1.6323037026255360e-04  1.6536621800653181e-04 
 1.6753001303494052e-04  1.6972212103428982e-04  1.7194291247604894e-04  1.7419276267925730e-04 
 1.7647205187395408e-04  1.7878116526543812e-04  1.8112049309936849e-04  1.8349043072771694e-04 
 1.8589137867558333e-04  1.8832374270888539e-04  1.9078793390293411e-04  1.9328436871190603e-04 
 1.9581346903922576e-04  1.9837566230886811e-04  2.0097138153759390e-04  2.0360106540813109e-04 
 2.0626515834331230e-04  2.0896411058118455e-04  2.1169837825109981e-04  2.1446842345080214e-04 
 2.1727471432452325e-04  2.2011772514210005e-04  2.2299793637912735e-04  2.2591583479815935e-04 
 2.2887191353097378e-04  2.3186667216191229e-04  2.3490061681231123e-04  2.3797426022603767e-04 
 2.4108812185614405e-04  2.4424272795265739e-04  2.4743861165151584e-04  2.5067631306467122e-04 
 2.5395637937136842e-04  2.5727936491062034e-04  2.6064583127489174e-04  2.6405634740501088e-04 
 2.6751148968632112e-04  2.7101184204609153e-04  2.7455799605220218e-04  2.7815055101312018e-04 
 2.8179011407918471e-04  2.8547730034521627e-04  2.8921273295446980e-04  2.9299704320394690e-04 
 2.9683087065108681e-04  3.0071486322185293e-04  3.0464967732023401e-04  3.0863597793917818e-04 
 3.1267443877297724e-04  3.1676574233112441e-04  3.2091058005365858e-04  3.2510965242802043e-04 
 3.2936366910743466e-04  3.3367334903084550e-04  3.3803942054441737e-04  3.4246262152462785e-04 
 3.4694369950297003e-04  3.5148341179228791e-04  3.5608252561476311e-04  3.6074181823157812e-04 
 3.6546207707427469e-04  3.7024409987783201e-04  3.7508869481548530e-04  3.7999668063530984e-04 
 3.8496888679859063e-04  3.9000615362000369e-04  3.9510933240963073e-04  4.0027928561683348e-04 
 4.0551688697600889e-04  4.1082302165425277e-04  4.1619858640095465e-04  4.2164448969935121e-04 
 4.2716165192006162e-04  4.3275100547663254e-04  4.3841349498311842e-04  4.4415007741372287e-04 
 4.4996172226453038e-04  4.5584941171735295e-04  4.6181414080572169e-04  4.6785691758304882e-04 
 4.7397876329299213e-04  4.8018071254204720e-04  4.8646381347439849e-04  4.9282912794905811e-04 
 4.9927773171932197e-04  5.0581071461457561e-04  5.1242918072447749e-04  5.1913424858555316e-04 
 5.2592705137022929e-04  5.3280873707834417e-04  5.3978046873116175e-04  5.4684342456792453e-04 
 5.5399879824497987e-04  5.6124779903750897e-04  5.6859165204389958e-04  5.7603159839278873e-04 
 5.8356889545281749e-04  5.9120481704512786e-04  5.9894065365864344e-04  6.0677771266816425e-04 
 6.1471731855531546e-04  6.2276081313238953e-04  6.3090955576911370e-04  6.3916492362238854e-04 
 6.4752831186903003e-04  6.5600113394155763e-04  6.6458482176706734e-04  6.7328082600923167e-04 
 6.8209061631346521e-04  6.9101568155529734e-04  7.0005753009199669e-04  7.0921769001748602e-04 
 7.1849770942059498e-04  7.2789915664669014e-04  7.3742362056272920e-04  7.4707271082578267e-04 
 7.5684805815507100e-04  7.6675131460755927e-04  7.7678415385715833e-04  7.8694827147758118e-04 
 7.9724538522889634e-04  8.0767723534783630e-04  8.1824558484189995e-04  8.2895221978730596e-04 
 8.3979894963084228e-04  8.5078760749566866e-04  8.6192005049111884e-04  8.7319816002655510e-04 
 8.8462384212933227e-04  8.9619902776691916e-04  9.0792567317323923e-04  9.1980576017927640e-04 
 9.3184129654801096e-04  9.4403431631373417e-04  9.5638688012580745e-04  9.6890107559691521e-04 
 9.8157901765587720e-04  9.9442284890507646e-04  1.0074347399825628e-03  1.0206168899288984e-03 
 1.0339715265587988e-03  1.0475009068376404e-03  1.0612073172628909e-03  1.0750930742505346e-03 
 1.0891605245265520e-03  1.1034120455235220e-03  1.1178500457824135e-03  1.1324769653596328e-03 
 1.1472952762394027e-03  1.1623074827515308e-03  1.1775161219946487e-03  1.1929237642649853e-03 
 1.2085330134907568e-03  1.2243465076722335e-03  1.2403669193275704e-03  1.2565969559444670e-03 
 1.2730393604377401e-03  1.2896969116128843e-03  1.3065724246356942e-03  1.3236687515080371e-03 
 1.3409887815498437e-03  1.3585354418874155e-03  1.3763116979481119e-03  1.3943205539615163e-03 
 1.4125650534671590e-03  1.4310482798288785e-03  1.4497733567559220e-03  1.4687434488308585e-03 
 1.4879617620443988e-03  1.5074315443372175e-03  1.5271560861488634e-03  1.5471387209738466e-03 
 1.5673828259250139e-03  1.5878918223042853e-03  1.6086691761808625e-03  1.6297183989770023e-03 
 1.6510430480614568e-03  1.6726467273506759e-03  1.6945330879178783e-03  1.7167058286100929e-03 
 1.7391686966732670e-03  1.7619254883855687e-03  1.7849800496989607e-03  1.8083362768891770e-03 
 1.8319981172142028e-03  1.8559695695813704e-03  1.8802546852231847e-03  1.9048575683819895e-03 
 1.9297823770035979e-03  1.9550333234399867e-03  1.9806146751612059e-03  2.0065307554765818e-03 
 2.0327859442653699e-03  2.0593846787169668e-03  2.0863314540808010e-03  2.1136308244260461e-03 
 2.1412874034112649e-03  2.1693058650641330e-03  2.1976909445713530e-03  2.2264474390789228e-03 
 2.2555802085028570e-03  2.2850941763505272e-03  2.3149943305527461e-03  2.3452857243067386e-03 
 2.3759734769301460e-03  2.4070627747262013e-03  2.4385588718602298e-03  2.4704670912476063e-03 
 2.5027928254533548e-03  2.5355415376034939e-03  2.5687187623083217e-03  2.6023301065977787e-03 
 2.6363812508690488e-03  2.6708779498465581e-03  2.7058260335545386e-03  2.7412314083023206e-03 
 2.7771000576824988e-03  2.8134380435821927e-03  2.8502515072075063e-03  2.8875466701214127e-03 
 2.9253298352952097e-03  2.9636073881737389e-03  3.0023857977545428e-03  3.0416716176811355e-03 
 3.0814714873505914e-03  3.1217921330356072e-03  3.1626403690212740e-03  3.2040230987566949e-03 
 3.2459473160216905e-03  3.2884201061087626e-03  3.3314486470205251e-03  3.3750402106828043e-03 
 3.4192021641736101e-03  3.4639419709681972e-03  3.5092671922003914e-03  3.5551854879404638e-03 
 3.6017046184896821e-03  3.6488324456918314e-03  3.6965769342618771e-03  3.7449461531320234e-03 
 3.7939482768153832e-03  3.8435915867874883e-03  3.8938844728858839e-03  3.9448354347280156e-03 
 3.9964530831477071e-03  4.0487461416503943e-03  4.1017234478874284e-03  4.1553939551496541e-03 
 4.2097667338805399e-03  4.2648509732091033e-03  4.3206559825028964e-03  4.3771911929413165e-03 
 4.4344661591094780e-03  4.4924905606129875e-03  4.5512742037138029e-03  4.6108270229875186e-03 
 4.6711590830023336e-03  4.7322805800199862e-03  4.7942018437189485e-03  4.8569333389401623e-03 
 4.9204856674556338e-03  4.9848695697601317e-03  5.0500959268863924e-03  5.1161757622440115e-03 
 5.1831202434824454e-03  5.2509406843783543e-03  5.3196485467476694e-03  5.3892554423826643e-03 
 5.4597731350143706e-03  5.5312135423006871e-03  5.6035887378404715e-03  5.6769109532140340e-03 
 5.7511925800502860e-03  5.8264461721209623e-03  5.9026844474622331e-03  5.9799202905240836e-03 
 6.0581667543478223e-03  6.1374370627720687e-03  6.2177446126676231e-03  6.2991029762015458e-03 
 6.3815259031309215e-03  6.4650273231265758e-03  6.5496213481272278e-03  6.6353222747244471e-03 
 6.7221445865788022e-03  6.8101029568676443e-03  6.8992122507649011e-03  6.9894875279533355e-03 
 7.0809440451696445e-03  7.1735972587829190e-03  7.2674628274067834e-03  7.3625566145457443e-03 
 7.4588946912761602e-03  7.5564933389622923e-03  7.6553690520078958e-03  7.7555385406438060e-03 
 7.8570187337520230e-03  7.9598267817267039e-03  8.0639800593726545e-03  8.1694961688416907e-03 
 8.2763929426074509e-03  8.3846884464791310e-03  8.4944009826546322e-03  8.6055490928137000e-03 
 8.7181515612514918e-03  8.8322274180531891e-03  8.9477959423100838e-03  9.0648766653778495e-03 
 9.1834893741773466e-03  9.3036541145386734e-03  9.4253911945889526e-03  9.5487211881844607e-03 
 9.6736649383876543e-03  9.8002435609896906e-03  9.9284784480790731e-03  1.0058391271656910e-02 
 1.0190003987299603e-02  1.0323338837869343e-02  1.0458418357273229e-02  1.0595265374271540e-02 
 1.0733903016335861e-02  1.0874354713557671e-02  1.1016644202608087e-02  1.1160795530749435e-02 
 1.1306833059899239e-02  1.1454781470747527e-02  1.1604665766927855e-02  1.1756511279243022e-02 
 1.1910343669946017e-02  1.2066188937077003e-02  1.2224073418857052e-02  1.2384023798139363e-02 
 1.2546067106918746e-02  1.2710230730900041e-02  1.2876542414126438e-02  1.3045030263668237e-02 
 1.3215722754373032e-02  1.3388648733678012e-02  1.3563837426485266e-02  1.3741318440100838e-02 
 1.3921121769238456e-02  1.4103277801088705e-02  1.4287817320454491e-02  1.4474771514953820e-02 
 1.4664171980290533e-02  1.4856050725594061e-02  1.5050440178829056e-02  1.5247373192275775e-02 
 1.5446883048082212e-02  1.5649003463888853e-02  1.5853768598527041e-02  1.6061213057791873e-02 
 1.6271371900290713e-02  1.6484280643368144e-02  1.6699975269108481e-02  1.6918492230416859e-02 
 1.7139868457179824e-02  1.7364141362506597e-02  1.7591348849051967e-02  1.7821529315421959e-02 
 1.8054721662663205e-02  1.8290965300837424e-02  1.8530300155681752e-02  1.8772766675356298e-02 
 1.9018405837279977e-02  1.9267259155055803e-02  1.9519368685486777e-02  1.9774777035683581e-02 
 2.0033527370265317e-02  2.0295663418654342e-02  2.0561229482466765e-02  2.0830270442999437e-02 
 2.1102831768815035e-02  2.1378959523426343e-02  2.1658700373081107e-02  2.1942101594648721e-02 
 2.2229211083610152e-02  2.2520077362152405e-02  2.2814749587368812e-02  2.3113277559566790e-02 
 2.3415711730684175e-02  2.3722103212815700e-02  2.4032503786851095e-02  2.4346965911226152e-02 
 2.4665542730788338e-02  2.4988288085778403e-02  2.5315256520929537e-02  2.5646503294685440e-02 
 2.5982084388539307e-02  2.6322056516494708e-02  2.6666477134650438e-02  2.7015404450910722e-02 
 2.7368897434822480e-02  2.7727015827541352e-02  2.8089820151928055e-02  2.8457371722776955e-02 
 2.8829732657178270e-02  2.9206965885016204e-02  2.9589135159604107e-02  2.9976305068458990e-02 
 3.0368541044216948e-02  3.0765909375691444e-02  3.1168477219076274e-02  3.1576312609295117e-02 
 3.1989484471499637e-02  3.2408062632717879e-02  3.2832117833655382e-02  3.3261721740650382e-02 
 3.3696946957785669e-02  3.4137867039158817e-02  3.4584556501313007e-02  3.5037090835830509e-02 
 3.5495546522090929e-02  3.5960001040196456e-02  3.6430532884066023e-02  3.6907221574701186e-02 
 3.7390147673625238e-02  3.7879392796498296e-02  3.8375039626910586e-02  3.8877171930356121e-02 
 3.9385874568389323e-02  3.9901233512966774e-02  4.0423335860976753e-02  4.0952269848958646e-02 
 4.1488124868015369e-02  4.2030991478920553e-02  4.2580961427423493e-02  4.3138127659754479e-02 
 4.3702584338332871e-02  4.4274426857680821e-02  4.4853751860545153e-02  4.5440657254230209e-02 
 4.6035242227144356e-02  4.6637607265563229e-02  4.7247854170611989e-02  4.7866086075470042e-02 
 4.8492407462800778e-02  4.9126924182409333e-02  4.9769743469131565e-02  5.0420973960956871e-02 
 5.1080725717388420e-02  5.1749110238043239e-02  5.2426240481496168e-02  5.3112230884369997e-02 
 5.3807197380675527e-02  5.4511257421404738e-02  5.5224529994380225e-02  5.5947135644364494e-02 
 5.6679196493432241e-02  5.7420836261609411e-02  5.8172180287781886e-02  5.8933355550878412e-02 
 5.9704490691330117e-02  6.0485716032811131e-02  6.1277163604263538e-02  6.2078967162210646e-02 
 6.2891262213362109e-02  6.3714186037514928e-02  6.4547877710754070e-02  6.5392478128956461e-02 
 6.6248130031603070e-02  6.7114978025901981e-02  6.7993168611227409e-02  6.8882850203878451e-02 
 6.9784173162161789e-02  7.0697289811802622e-02  7.1622354471688035e-02  7.2559523479947374e-02 
 7.3508955220373429e-02  7.4470810149190172e-02  7.5445250822169851e-02  7.6432441922105465e-02 
 7.7432550286642518e-02  7.8445744936474979e-02  7.9472197103910167e-02  8.0512080261807437e-02 
 8.1565570152895492e-02  8.2632844819473319e-02  8.3714084633499816e-02  8.4809472327076987e-02 
 8.5919193023332341e-02  8.7043434267704486e-02  8.8182386059639642e-02  8.9336240884701504e-02 
 9.0505193747101795e-02  9.1689442202656443e-02  9.2889186392173070e-02  9.4104629075275226e-02 
 9.5335975664669240e-02  9.6583434260859413e-02  9.7847215687317593e-02  9.9127533526112768e-02 
 1.0042460415400699e-01  1.0173864677902351e-01  1.0306988347749350e-01  1.0441853923158748e-01 
 1.0578484196733781e-01  1.0716902259315879e-01  1.0857131503887084e-01  1.0999195629523451e-01 
 1.1143118645400357e-01  1.1288924874850036e-01  1.1436638959472298e-01  1.1586285863299016e-01 
 1.1737890877013117e-01  1.1891479622222745e-01  1.2047078055791402e-01  1.2204712474224699e-01 
 1.2364409518114536e-01  1.2526196176641424e-01  1.2690099792135726e-01  1.2856148064698561e-01 
 1.3024369056883209e-01  1.3194791198437728e-01  1.3367443291109660e-01  1.3542354513513599e-01 
 1.3719554426062464e-01  1.3899072975963170e-01  1.4080940502277955e-01  1.4265187741051624e-01 
 1.4451845830506060e-01  1.4640946316302642e-01  1.4832521156873546e-01  1.5026602728822799e-01 
 1.5223223832397989e-01  1.5422417697033600e-01  1.5624217986966857e-01  1.5828658806927062e-01 
 1.6035774707899375e-01  1.6245600692964018e-01  1.6458172223211875e-01  1.6673525223737495e-01 
 1.6891696089710531e-01  1.7112721692526603e-01  1.7336639386038669e-01  1.7563487012869827e-01 
 1.7793302910808959e-01  1.8026125919289795e-01  1.8261995385954918e-01  1.8500951173305583e-01 
 1.8743033665438591e-01  1.8988283774871292e-01  1.9236742949455898e-01  1.9488453179384269e-01 
 1.9743457004284362e-01  2.0001797520409517e-01  2.0263518387921831e-01  2.0528663838270841e-01 
 2.0797278681668727e-01  2.1069408314663346e-01  2.1345098727810372e-01  2.1624396513445798e-01 
 2.1907348873560195e-01  2.2194003627775793e-01  2.2484409221428359e-01  2.2778614733754415e-01 
 2.3076669886185786e-01  2.3378625050752627e-01  2.3684531258596433e-01  2.3994440208594420e-01 
 2.4308404276096748e-01  2.4626476521778087e-01  2.4948710700605006e-01  2.5275161270920671e-01 
 2.5605883403648450e-01  2.5940932991615928e-01  2.6280366659000920e-01  2.6624241770901091e-01 
 2.6972616443028818e-01  2.7325549551532857e-01  2.7683100742948602e-01  2.8045330444278316e-01 
 2.8412299873203717e-01  2.8784071048431703e-01  2.9160706800175751e-01  2.9542270780774332e-01 
 2.9928827475448327e-01  3.0320442213199184e-01  3.0717181177849645e-01  3.1119111419229034e-01 
 3.1526300864504764e-01  3.1938818329662244e-01  3.2356733531134912e-01  3.2780117097586497e-01 
 3.3209040581847427e-01  3.3643576473007414e-01  3.4083798208666310e-01  3.4529780187345210e-01 
 3.4981597781060048e-01  3.5439327348059407e-01  3.5903046245729620e-01  3.6372832843668079e-01 
 3.6848766536927985e-01  3.7330927759436255e-01  3.7819397997587095e-01  3.8314259804013345e-01 
 3.8815596811538128e-01  3.9323493747308930e-01  3.9838036447116748e-01  4.0359311869902514e-01 
 4.0887408112453349e-01  4.1422414424291182e-01  4.1964421222756082e-01  4.2513520108286995e-01 
 4.3069803879902507e-01  4.3633366550884017e-01  4.4204303364664349e-01  4.4782710810923737e-01 
 4.5368686641897360e-01  4.5962329888895331e-01  4.6563740879039317e-01  4.7173021252218061e-01 
 4.7790273978264791e-01  4.8415603374359323e-01  4.9049115122657938e-01  4.9690916288153919e-01 
 5.0341115336771791e-01  5.0999822153698293e-01  5.1667148061953294e-01  5.2343205841203566e-01 
 5.3028109746822905e-01  5.3721975529201471e-01  5.4424920453307979e-01  5.5137063318507673e-01 
 5.5858524478639848e-01  5.6589425862357490e-01  5.7329890993734189e-01  5.8080045013139514e-01 
 5.8840014698388177e-01  5.9609928486165809e-01  6.0389916493734985e-01  6.1180110540925459e-01 
 6.1980644172411925e-01  6.2791652680283461e-01  6.3613273126908165e-01  6.4445644368097066e-01 
 6.5288907076571034e-01  6.6143203765734870e-01  6.7008678813762335e-01  6.7885478487996453e-01 
 6.8773750969669067e-01  6.9673646378943710e-01  7.0585316800286568e-01  7.1508916308168424e-01 
 7.2444600993104491e-01  7.3392528988033545e-01  7.4352860495042916e-01  7.5325757812442928e-01 
 7.6311385362195849e-01  7.7309909717703462e-01  7.8321499631958413e-01  7.9346326066063932e-01 
 8.0384562218126532e-01  8.1436383552527047e-01  8.2501967829574396e-01  8.3581495135547612e-01 
 8.4675147913130777e-01  8.5783110992246303e-01  8.6905571621291633e-01  8.8042719498784616e-01 
 8.9194746805423253e-01  9.0361848236563957e-01  9.1544221035126594e-01  9.2742065024928266e-01 
 9.3955582644454239e-01  9.5184978981070500e-01  9.6430461805684020e-01  9.7692241607856534e-01 
 9.8970531631377756e-01  1.0026554791030413e+00  1.0157750930546903e+00  1.0290663754147085e+00 
 1.0425315724414497e+00  1.0561729597852589e+00  1.0699928428730661e+00  1.0839935572980053e+00 
 1.0981774692141371e+00  1.1125469757363349e+00  1.1271045053454036e+00  1.1418525182984915e+00 
 1.1567935070448911e+00  1.1719299966472618e+00  1.1872645452083728e+00  1.2027997443034284e+00 
 1.2185382194180510e+00  1.2344826303919940e+00  1.2506356718686615e+00  1.2670000737505085e+00 
 1.2835786016604025e+00  1.3003740574090179e+00  1.3173892794683517e+00  1.3346271434514296e+00 
 1.3520905625982922e+00  1.3697824882683407e+00  1.3877059104391209e+00  1.4058638582116398e+00 
 1.4242594003222910e+00  1.4428956456614697e+00  1.4617757437989960e+00  1.4809028855163919e+00 
 1.5002803033461325e+00  1.5199112721179506e+00  1.5397991095122927e+00  1.5599471766210131e+00 
 1.5803588785154077e+00  1.6010376648216786e+00  1.6219870303039285e+00  1.6432105154547860e+00 
 1.6647117070937554e+00  1.6864942389733986e+00  1.7085617923934475e+00  1.7309180968229534e+00 
 1.7535669305305748e+00  1.7765121212231150e+00  1.7997575466924158e+00  1.8233071354707013e+00 
 1.8471648674945289e+00  1.8713347747773941e+00  1.8958209420911545e+00  1.9206275076563655e+00 
 1.9457586638416495e+00  1.9712186578722168e+00  1.9970117925476558e+00  2.0231424269691165e+00 
 2.0496149772760095e+00  2.0764339173923441e+00  2.1036037797828313e+00  2.1311291562188828e+00 
 2.1590146985546288e+00  2.1872651195130941e+00  2.2158851934826598e+00  2.2448797573239450e+00 
 2.2742537111872538e+00  2.3040120193406923e+00  2.3341597110091707e+00  2.3647018812243363e+00 
 2.3956436916856476e+00  2.4269903716327175e+00  2.4587472187290653e+00  2.4909195999574347e+00 
 2.5235129525268265e+00  2.5565327847914001e+00  2.5899846771813988e+00  2.6238742831462556e+00 
 2.6582073301100384e+00  2.6929896204394002e+00  2.7282270324241922e+00  2.7639255212709082e+00 
 2.8000911201091294e+00  2.8367299410111362e+00  2.8738481760248709e+00  2.9114520982203858e+00 
 2.9495480627500372e+00  2.9881425079225035e+00  3.0272419562908768e+00  3.0668530157549911e+00 
 3.1069823806781756e+00  3.1476368330186135e+00  3.1888232434755115e+00  3.2305485726502652e+00 
 3.2728198722228137e+00  3.3156442861433963e+00  3.3590290518398915e+00  3.4029815014409621e+00 
 3.4475090630152012e+00  3.4926192618264942e+00  3.5383197216058084e+00  3.5846181658396166e+00 
 3.6315224190751967e+00  3.6790404082429684e+00  3.7271801639962052e+00  3.7759498220682071e+00 
 3.8253576246472640e+00  3.8754119217696079e+00  3.9261211727305856e+00  3.9774939475143039e+00 
 4.0295389282419718e+00  4.0822649106392053e+00  4.1356808055225223e+00  4.1897956403052925e+00 
 4.2446185605233930e+00  4.3001588313808252e+00  4.3564258393155555e+00  4.4134290935858438e+00 
 4.4711782278773367e+00  4.5296830019311782e+00  4.5889533031934375e+00  4.6489991484860811e+00 
 4.7098306856998873e+00  4.7714581955094282e+00  4.8338920931105438e+00  4.8971429299805243e+00 
 4.9612213956613465e+00  5.0261383195662219e+00  5.0919046728097994e+00  5.1585315700623076e+00 
 5.2260302714279598e+00  5.2944121843479426e+00  5.3636888655282915e+00  5.4338720228930137e+00 
 5.5049735175627470e+00  5.5770053658593168e+00  5.6499797413365300e+00  5.7239089768375262e+00 
 5.7988055665790759e+00  5.8746821682630852e+00  5.9515516052158430e+00  6.0294268685551513e+00 
 6.1083211193858640e+00  6.1882476910241486e+00  6.2692200912508440e+00  6.3512520045943122e+00 
 6.4343572946431493e+00  6.5185500063891757e+00  6.6038443686010604e+00  6.6902547962290271e+00 
 6.7777958928410103e+00  6.8664824530906934e+00  6.9563294652178413e+00  7.0473521135813488e+00 
 7.1395657812254312e+00  7.2329860524793972e+00  7.3276287155914517e+00  7.4235097653968936e+00 
 7.5206454060213597e+00  7.6190520536193063e+00  7.7187463391483959e+00  7.8197451111801639e+00 
 7.9220654387474712e+00  8.0257246142292100e+00  8.1307401562727541e+00  8.2371298127546559e+00 
 8.3449115637800801e+00  8.4541036247214780e+00  8.5647244492970405e+00  8.6767927326894050e+00 
 8.7903274147052013e+00  8.9053476829759113e+00  9.0218729762006351e+00  9.1399229874312660e+00 
 9.2595176674006900e+00  9.3806772278944361e+00  9.5034221451666170e+00  9.6277731634003949e+00 
 9.7537512982138175e+00  9.8813778402115116e+00  1.0010674358582834e+01  1.0141662704747134e+01 
 1.0274365016046673e+01  1.0408803719487905e+01  1.0545001535531691e+01  1.0682981481933107e+01 
 1.0822766877631498e+01  1.0964381346691441e+01  1.1107848822295262e+01  1.1253193550787808e+01 
 1.1400440095774124e+01  1.1549613342270778e+01  1.1700738500911493e+01  1.1853841112207730e+01 
 1.2008947050865221e+01  1.2166082530156762e+01  1.2325274106352353e+01  1.2486548683207264e+01 
 1.2649933516508829e+01  1.2815456218682749e+01  1.2983144763459654e+01  1.3153027490602721e+01 
 1.3325133110697182e+01  1.3499490710002453e+01  1.3676129755367811e+01  1.3855080099212337e+01 
 1.4036371984570060e+01  1.4220036050201099e+01  1.4406103335769682e+01  1.4594605287089932e+01 
 1.4785573761440299e+01  1.4979041032947418e+01  1.5175039798040673e+01  1.5373603180977858e+01 
 1.5574764739443292e+01  1.5778558470219139e+01  1.5985018814930948e+01  1.6194180665868370e+01 
 1.6406079371882043e+01  1.6620750744357618e+01  1.6838231063267987e+01  1.7058557083304663e+01 
 1.7281766040089437e+01  1.7507895656467259e+01  1.7736984148881511e+01  1.7969070233832660e+01 
 1.8204193134421455e+01  1.8442392586977739e+01  1.8683708847775868e+01  1.8928182699838306e+01 
 1.9175855459827925e+01  1.9426768985030641e+01  1.9680965680429420e+01  1.9938488505870794e+01 
 2.0199380983325192e+01  2.0463687204242248e+01  2.0731451837002382e+01  2.1002720134465825e+01 
 2.1277537941620505e+01  2.1555951703329910e+01  2.1838008472182437e+01  2.2123755916443329e+01 
 2.2413242328110783e+01  2.2706516631077367e+01  2.3003628389398315e+01  2.3304627815667967e+01 
 2.3609565779505701e+01  2.3918493816153223e+01  2.4231464135184002e+01  2.4548529629326854e+01 
 2.4869743883404936e+01  2.5195161183391715e+01  2.5524836525585400e+01  2.5858825625903496e+01 
 2.6197184929298878e+01  2.6539971619299141e+01  2.6887243627670770e+01  2.7239059644209711e+01 
 2.7595479126660120e+01  2.7956562310762848e+01  2.8322370220435417e+01  2.8692964678085222e+01 
 2.9068408315057653e+01  2.9448764582221006e+01  2.9834097760689609e+01  3.0224472972687810e+01 
 3.0619956192555563e+01  3.1020614257898320e+01  3.1426514880882721e+01  3.1837726659680133e+01 
 3.2254319090059909e+01  3.2676362577134299e+01  3.3103928447257125e+01  3.3537088960078094e+01 
 3.3975917320754832e+01  3.4420487692324748e+01  3.4870875208238765e+01  3.5327155985059022e+01 
 3.5789407135322797e+01  3.6257706780574701e+01  3.6732134064569372e+01  3.7212769166647057e+01 
 3.7699693315283824e+01  3.8192988801819794e+01  3.8692738994366280e+01  3.9199028351895272e+01 
 3.9711942438513212e+01  4.0231567937921533e+01  4.0757992668066379e+01  4.1291305595980106e+01 
 4.1831596852816837e+01  4.2378957749084954e+01  4.2933480790078683e+01  4.3495259691511777e+01 
 4.4064389395355654e+01  4.4640966085884862e+01  4.5225087205932397e+01  4.5816851473357822e+01 
 4.6416358897730781e+01  4.7023710797232958e+01  4.7639009815780781e+01  4.8262359940372917e+01 
 4.8893866518664055e+01  4.9533636276768988e+01  5.0181777337299529e+01  5.0838399237637567e+01 
 5.1503612948447071e+01  5.2177530892428450e+01  5.2860266963318217e+01  5.3551936545137330e+01 
 5.4252656531691365e+01  5.4962545346325825e+01  5.5681722961939982e+01  5.6410310921262607e+01 
 5.7148432357392913e+01  5.7896212014610420e+01  5.8653776269456984e+01  5.9421253152094849e+01 
 6.0198772367943647e+01  6.0986465319601528e+01  6.1784465129052109e+01  6.2592906660162498e+01 
 6.3411926541475644e+01  6.4241663189300795e+01  6.5082256831106335e+01  6.5933849529218392e+01 
 6.6796585204829810e+01  6.7670609662323201e+01  6.8556070613912112e+01  6.9453117704604850e+01 
 7.0361902537494814e+01  7.1282578699381745e+01  7.2215301786728304e+01  7.3160229431956225e+01 
 7.4117521330086575e+01  7.5087339265728701e+01  7.6069847140421757e+01  7.7065211000335125e+01 