
     Program PWSCF v.5.3.0 (svn rev. 11974) starts on 25Aug2017 at  9:27: 4 

     This program is part of the open-source Quantum ESPRESSO suite
     for quantum simulation of materials; please cite
         "P. Giannozzi et al., J. Phys.:Condens. Matter 21 395502 (2009);
          URL http://www.quantum-espresso.org", 
     in publications or presentations arising from this work. More details at
     http://www.quantum-espresso.org/quote

     Parallel version (MPI), running on    36 processors
     R & G space division:  proc/nbgrp/npool/nimage =      36
     Reading input from scf.in
     Message from routine read_cards :
     DEPRECATED: no units specified in CELL_PARAMETERS card

     Current dimensions of program PWSCF are:
     Max number of different atomic species (ntypx) = 10
     Max number of k-points (npk) =  40000
     Max angular momentum in pseudopotentials (lmaxx) =  3

     IMPORTANT: XC functional enforced from input :
     Exchange-correlation      = PBE ( 1  4  3  4 0 0)
     Any further DFT definition will be discarded
     Please, verify this is what you really want


     Subspace diagonalization in iterative solution of the eigenvalue problem:
     a serial algorithm will be used

 
     Parallelization info
     --------------------
     sticks:   dense  smooth     PW     G-vecs:    dense   smooth      PW
     Min         159     159     44                 7040     7040    1017
     Max         160     160     45                 7043     7043    1020
     Sum        5755    5755   1585               253507   253507   36689
 
     Generating pointlists ...
     new r_m :   0.4125 (alat units)  0.4125 (a.u.) for type    1
     new r_m :   0.4125 (alat units)  0.4125 (a.u.) for type    2
     new r_m :   0.4125 (alat units)  0.4125 (a.u.) for type    3


     bravais-lattice index     =            0
     lattice parameter (alat)  =       1.0000  a.u.
     unit-cell volume          =     274.6840 (a.u.)^3
     number of atoms/cell      =            4
     number of atomic types    =            3
     number of electrons       =        44.00 (up:  22.00, down:  22.00)
     number of Kohn-Sham states=           32
     kinetic-energy cutoff     =     360.0000  Ry
     charge density cutoff     =    1440.0000  Ry
     convergence threshold     =      1.0E-10
     mixing beta               =       0.3000
     number of iterations used =            8  plain     mixing
     Exchange-correlation      = PBE ( 1  4  3  4 0 0)

     celldm(1)=   1.000000  celldm(2)=   0.000000  celldm(3)=   0.000000
     celldm(4)=   0.000000  celldm(5)=   0.000000  celldm(6)=   0.000000

     crystal axes: (cart. coord. in units of alat)
               a(1) = (   7.379242   2.767216   2.767216 )  
               a(2) = (   2.767216   7.379242   2.767216 )  
               a(3) = (   2.767216   2.767216   7.379242 )  

     reciprocal axes: (cart. coord. in units 2 pi/alat)
               b(1) = (  0.170362 -0.046462 -0.046462 )  
               b(2) = ( -0.046462  0.170362 -0.046462 )  
               b(3) = ( -0.046462 -0.046462  0.170362 )  


     PseudoPot. # 1 for Fe read from file:
     ../Fe.opt.upf
     MD5 check sum: 0a1f874e4978502669d7d49c3d82089b
     Pseudo is Norm-conserving, Zval = 16.0
     Generated by new atomic code, or converted to UPF format
     Using radial grid of 1160 points,  2 beta functions with: 
                l(1) =   0
                l(2) =   2

     PseudoPot. # 2 for Fe read from file:
     ../Fe.opt.upf
     MD5 check sum: 0a1f874e4978502669d7d49c3d82089b
     Pseudo is Norm-conserving, Zval = 16.0
     Generated by new atomic code, or converted to UPF format
     Using radial grid of 1160 points,  2 beta functions with: 
                l(1) =   0
                l(2) =   2

     PseudoPot. # 3 for O  read from file:
     ../O.opt.upf
     MD5 check sum: 0b670aeee1f35195f09134313df81f8f
     Pseudo is Norm-conserving, Zval =  6.0
     Generated by new atomic code, or converted to UPF format
     Using radial grid of 1130 points,  1 beta functions with: 
                l(1) =   1

     atomic species   valence    mass     pseudopotential
        Fe1           16.00    55.84500     Fe( 1.00)
        Fe2           16.00    55.84500     Fe( 1.00)
        O              6.00    15.99900     O ( 1.00)

     Starting magnetic structure 
     atomic species   magnetization
        Fe1         -0.500
        Fe2          0.500
        O            0.000


     Full LDA+U calculation (l_max = 2) with parameters (eV):
     U(  1) =   4.3000   J(  1) =   0.0000   B(  1) =   0.0000
     U(  2) =   4.3000   J(  2) =   0.0000   B(  2) =   0.0000



     12 Sym. Ops., with inversion, found


                                    s                        frac. trans.

      isym =  1     identity                                     

 cryst.   s( 1) = (     1          0          0      )
                  (     0          1          0      )
                  (     0          0          1      )

 cart.    s( 1) = (  1.0000000 -0.0000000 -0.0000000 )
                  ( -0.0000000  1.0000000 -0.0000000 )
                  ( -0.0000000 -0.0000000  1.0000000 )


      isym =  2     180 deg rotation - cart. axis [1,-1,0]       

 cryst.   s( 2) = (     0         -1          0      )
                  (    -1          0          0      )
                  (     0          0         -1      )

 cart.    s( 2) = (  0.0000000 -1.0000000  0.0000000 )
                  ( -1.0000000  0.0000000  0.0000000 )
                  (  0.0000000  0.0000000 -1.0000000 )


      isym =  3     180 deg rotation - cart. axis [-1,0,1]       

 cryst.   s( 3) = (     0          0         -1      )
                  (     0         -1          0      )
                  (    -1          0          0      )

 cart.    s( 3) = (  0.0000000  0.0000000 -1.0000000 )
                  (  0.0000000 -1.0000000  0.0000000 )
                  ( -1.0000000  0.0000000  0.0000000 )


      isym =  4     180 deg rotation - cart. axis [0,1,-1]       

 cryst.   s( 4) = (    -1          0          0      )
                  (     0          0         -1      )
                  (     0         -1          0      )

 cart.    s( 4) = ( -1.0000000  0.0000000  0.0000000 )
                  (  0.0000000  0.0000000 -1.0000000 )
                  (  0.0000000 -1.0000000  0.0000000 )


      isym =  5     120 deg rotation - cart. axis [-1,-1,-1]     

 cryst.   s( 5) = (     0          0          1      )
                  (     1          0          0      )
                  (     0          1          0      )

 cart.    s( 5) = ( -0.0000000  1.0000000 -0.0000000 )
                  ( -0.0000000 -0.0000000  1.0000000 )
                  (  1.0000000 -0.0000000 -0.0000000 )


      isym =  6     120 deg rotation - cart. axis [1,1,1]        

 cryst.   s( 6) = (     0          1          0      )
                  (     0          0          1      )
                  (     1          0          0      )

 cart.    s( 6) = ( -0.0000000 -0.0000000  1.0000000 )
                  (  1.0000000 -0.0000000 -0.0000000 )
                  ( -0.0000000  1.0000000 -0.0000000 )


      isym =  7     inversion                                    

 cryst.   s( 7) = (    -1          0          0      )
                  (     0         -1          0      )
                  (     0          0         -1      )

 cart.    s( 7) = ( -1.0000000  0.0000000  0.0000000 )
                  (  0.0000000 -1.0000000  0.0000000 )
                  (  0.0000000  0.0000000 -1.0000000 )


      isym =  8     inv. 180 deg rotation - cart. axis [1,-1,0]  

 cryst.   s( 8) = (     0          1          0      )
                  (     1          0          0      )
                  (     0          0          1      )

 cart.    s( 8) = ( -0.0000000  1.0000000 -0.0000000 )
                  (  1.0000000 -0.0000000 -0.0000000 )
                  ( -0.0000000 -0.0000000  1.0000000 )


      isym =  9     inv. 180 deg rotation - cart. axis [-1,0,1]  

 cryst.   s( 9) = (     0          0          1      )
                  (     0          1          0      )
                  (     1          0          0      )

 cart.    s( 9) = ( -0.0000000 -0.0000000  1.0000000 )
                  ( -0.0000000  1.0000000 -0.0000000 )
                  (  1.0000000 -0.0000000 -0.0000000 )


      isym = 10     inv. 180 deg rotation - cart. axis [0,1,-1]  

 cryst.   s(10) = (     1          0          0      )
                  (     0          0          1      )
                  (     0          1          0      )

 cart.    s(10) = (  1.0000000 -0.0000000 -0.0000000 )
                  ( -0.0000000 -0.0000000  1.0000000 )
                  ( -0.0000000  1.0000000 -0.0000000 )


      isym = 11     inv. 120 deg rotation - cart. axis [-1,-1,-1]

 cryst.   s(11) = (     0          0         -1      )
                  (    -1          0          0      )
                  (     0         -1          0      )

 cart.    s(11) = (  0.0000000 -1.0000000  0.0000000 )
                  (  0.0000000  0.0000000 -1.0000000 )
                  ( -1.0000000  0.0000000  0.0000000 )


      isym = 12     inv. 120 deg rotation - cart. axis [1,1,1]   

 cryst.   s(12) = (     0         -1          0      )
                  (     0          0         -1      )
                  (    -1          0          0      )

 cart.    s(12) = (  0.0000000  0.0000000 -1.0000000 )
                  ( -1.0000000  0.0000000  0.0000000 )
                  (  0.0000000 -1.0000000  0.0000000 )


   Cartesian axes

     site n.     atom                  positions (alat units)
         1           Fe1 tau(   1) = (   0.0000000   0.0000000   0.0000000  )
         2           Fe2 tau(   2) = (   6.4568367   6.4568367   6.4568367  )
         3           O   tau(   3) = (   3.2284184   3.2284184   3.2284184  )
         4           O   tau(   4) = (   9.6852551   9.6852551   9.6852551  )

   Crystallographic axes

     site n.     atom                  positions (cryst. coord.)
         1           Fe1 tau(   1) = (  0.0000000  0.0000000  0.0000000  )
         2           Fe2 tau(   2) = (  0.5000000  0.5000000  0.5000000  )
         3           O   tau(   3) = (  0.2500000  0.2500000  0.2500000  )
         4           O   tau(   4) = (  0.7500000  0.7500000  0.7500000  )

     number of k points=    28  Fermi-Dirac smearing, width (Ry)=  0.0010
                       cart. coord. in units 2pi/alat
        k(    1) = (   0.0064531   0.0064531   0.0064531), wk =   0.0092593
        k(    2) = (  -0.0012906  -0.0012906   0.0348468), wk =   0.0277778
        k(    3) = (  -0.0090344  -0.0090344   0.0632405), wk =   0.0277778
        k(    4) = (   0.0296843   0.0296843  -0.0787279), wk =   0.0277778
        k(    5) = (   0.0219406   0.0219406  -0.0503342), wk =   0.0277778
        k(    6) = (   0.0141968   0.0141968  -0.0219406), wk =   0.0277778
        k(    7) = (  -0.0090344   0.0271031   0.0271031), wk =   0.0277778
        k(    8) = (  -0.0167781   0.0193593   0.0554967), wk =   0.0555556
        k(    9) = (   0.0219406   0.0580780  -0.0864717), wk =   0.0555556
        k(   10) = (   0.0141968   0.0503342  -0.0580780), wk =   0.0555556
        k(   11) = (   0.0064531   0.0425905  -0.0296843), wk =   0.0555556
        k(   12) = (  -0.0245218   0.0477530   0.0477530), wk =   0.0277778
        k(   13) = (   0.0141968   0.0864717  -0.0942154), wk =   0.0555556
        k(   14) = (   0.0064531   0.0787279  -0.0658217), wk =   0.0555556
        k(   15) = (  -0.0012906   0.0709842  -0.0374280), wk =   0.0555556
        k(   16) = (   0.0529155  -0.0554967  -0.0554967), wk =   0.0277778
        k(   17) = (   0.0451718  -0.0632405  -0.0271031), wk =   0.0555556
        k(   18) = (   0.0374280  -0.0348468  -0.0348468), wk =   0.0277778
        k(   19) = (   0.0193593   0.0193593   0.0193593), wk =   0.0092593
        k(   20) = (   0.0116156   0.0116156   0.0477530), wk =   0.0277778
        k(   21) = (   0.0503342   0.0503342  -0.0942154), wk =   0.0277778
        k(   22) = (   0.0425905   0.0425905  -0.0658217), wk =   0.0277778
        k(   23) = (   0.0038719   0.0400093   0.0400093), wk =   0.0277778
        k(   24) = (   0.0425905   0.0787279  -0.1019591), wk =   0.0555556
        k(   25) = (   0.0348468   0.0709842  -0.0735654), wk =   0.0555556
        k(   26) = (   0.0813092  -0.0632405  -0.0632405), wk =   0.0277778
        k(   27) = (   0.0322655   0.0322655   0.0322655), wk =   0.0092593
        k(   28) = (   0.0709842   0.0709842  -0.1097028), wk =   0.0277778

                       cryst. coord.
        k(    1) = (   0.0833333   0.0833333   0.0833333), wk =   0.0092593
        k(    2) = (   0.0833333   0.0833333   0.2500000), wk =   0.0277778
        k(    3) = (   0.0833333   0.0833333   0.4166667), wk =   0.0277778
        k(    4) = (   0.0833333   0.0833333  -0.4166667), wk =   0.0277778
        k(    5) = (   0.0833333   0.0833333  -0.2500000), wk =   0.0277778
        k(    6) = (   0.0833333   0.0833333  -0.0833333), wk =   0.0277778
        k(    7) = (   0.0833333   0.2500000   0.2500000), wk =   0.0277778
        k(    8) = (   0.0833333   0.2500000   0.4166667), wk =   0.0555556
        k(    9) = (   0.0833333   0.2500000  -0.4166667), wk =   0.0555556
        k(   10) = (   0.0833333   0.2500000  -0.2500000), wk =   0.0555556
        k(   11) = (   0.0833333   0.2500000  -0.0833333), wk =   0.0555556
        k(   12) = (   0.0833333   0.4166667   0.4166667), wk =   0.0277778
        k(   13) = (   0.0833333   0.4166667  -0.4166667), wk =   0.0555556
        k(   14) = (   0.0833333   0.4166667  -0.2500000), wk =   0.0555556
        k(   15) = (   0.0833333   0.4166667  -0.0833333), wk =   0.0555556
        k(   16) = (   0.0833333  -0.4166667  -0.4166667), wk =   0.0277778
        k(   17) = (   0.0833333  -0.4166667  -0.2500000), wk =   0.0555556
        k(   18) = (   0.0833333  -0.2500000  -0.2500000), wk =   0.0277778
        k(   19) = (   0.2500000   0.2500000   0.2500000), wk =   0.0092593
        k(   20) = (   0.2500000   0.2500000   0.4166667), wk =   0.0277778
        k(   21) = (   0.2500000   0.2500000  -0.4166667), wk =   0.0277778
        k(   22) = (   0.2500000   0.2500000  -0.2500000), wk =   0.0277778
        k(   23) = (   0.2500000   0.4166667   0.4166667), wk =   0.0277778
        k(   24) = (   0.2500000   0.4166667  -0.4166667), wk =   0.0555556
        k(   25) = (   0.2500000   0.4166667  -0.2500000), wk =   0.0555556
        k(   26) = (   0.2500000  -0.4166667  -0.4166667), wk =   0.0277778
        k(   27) = (   0.4166667   0.4166667   0.4166667), wk =   0.0092593
        k(   28) = (   0.4166667   0.4166667  -0.4166667), wk =   0.0277778

     Dense  grid:   253507 G-vectors     FFT dimensions: ( 108, 108, 108)

     Largest allocated arrays     est. size (Mb)     dimensions
        Kohn-Sham Wavefunctions         0.43 Mb     (     885,   32)
        Atomic Hubbard wavefuncts       0.14 Mb     (     885,   10)
        NL pseudopotentials             0.24 Mb     (     885,   18)
        Each V/rho on FFT grid          1.07 Mb     (   34992,   2)
        Each G-vector array             0.05 Mb     (    7043)
        G-vector shells                 0.04 Mb     (    5358)
     Largest temporary arrays     est. size (Mb)     dimensions
        Auxiliary wavefunctions         1.73 Mb     (     885,  128)
        Each subspace H/S matrix        0.25 Mb     (     128,  128)
        Each <psi_i|beta_j> matrix      0.01 Mb     (      18,   32)
        Arrays for rho mixing           4.27 Mb     (   34992,    8)

     Initial potential from superposition of free atoms

     starting charge   36.00000, renormalised to   44.00000
 --- in v_hubbard ---
Hubbard energies (dc, U, total)    9.4813   9.7342   0.2528
 -------
     Number of +U iterations with fixed ns =  0
     Starting occupations:
 --- enter write_ns ---
 LDA+U parameters:
U(  1) =   4.3000   J(  1) =   0.0000   B(  1) =   0.0000
U(  2) =   4.3000   J(  2) =   0.0000   B(  2) =   0.0000
atom    1   Tr[ns(na)] (up, down, total) =   1.00000  5.00000  6.00000
   spin  1
    eigenvalues: 
  0.200  0.200  0.200  0.200  0.200
    eigenvectors:
  1.000  0.000  0.000  0.000  0.000
  0.000  1.000  0.000  0.000  0.000
  0.000  0.000  1.000  0.000  0.000
  0.000  0.000  0.000  1.000  0.000
  0.000  0.000  0.000  0.000  1.000
    occupations:
  0.200  0.000  0.000  0.000  0.000
  0.000  0.200  0.000  0.000  0.000
  0.000  0.000  0.200  0.000  0.000
  0.000  0.000  0.000  0.200  0.000
  0.000  0.000  0.000  0.000  0.200
   spin  2
    eigenvalues: 
  1.000  1.000  1.000  1.000  1.000
    eigenvectors:
  1.000  0.000  0.000  0.000  0.000
  0.000  1.000  0.000  0.000  0.000
  0.000  0.000  1.000  0.000  0.000
  0.000  0.000  0.000  1.000  0.000
  0.000  0.000  0.000  0.000  1.000
    occupations:
  1.000  0.000  0.000  0.000  0.000
  0.000  1.000  0.000  0.000  0.000
  0.000  0.000  1.000  0.000  0.000
  0.000  0.000  0.000  1.000  0.000
  0.000  0.000  0.000  0.000  1.000
atomic mag. moment =    -4.000000
atom    2   Tr[ns(na)] (up, down, total) =   5.00000  1.00000  6.00000
   spin  1
    eigenvalues: 
  1.000  1.000  1.000  1.000  1.000
    eigenvectors:
  1.000  0.000  0.000  0.000  0.000
  0.000  1.000  0.000  0.000  0.000
  0.000  0.000  1.000  0.000  0.000
  0.000  0.000  0.000  1.000  0.000
  0.000  0.000  0.000  0.000  1.000
    occupations:
  1.000  0.000  0.000  0.000  0.000
  0.000  1.000  0.000  0.000  0.000
  0.000  0.000  1.000  0.000  0.000
  0.000  0.000  0.000  1.000  0.000
  0.000  0.000  0.000  0.000  1.000
   spin  2
    eigenvalues: 
  0.200  0.200  0.200  0.200  0.200
    eigenvectors:
  1.000  0.000  0.000  0.000  0.000
  0.000  1.000  0.000  0.000  0.000
  0.000  0.000  1.000  0.000  0.000
  0.000  0.000  0.000  1.000  0.000
  0.000  0.000  0.000  0.000  1.000
    occupations:
  0.200  0.000  0.000  0.000  0.000
  0.000  0.200  0.000  0.000  0.000
  0.000  0.000  0.200  0.000  0.000
  0.000  0.000  0.000  0.200  0.000
  0.000  0.000  0.000  0.000  0.200
atomic mag. moment =     4.000000
N of occupied +U levels =   12.000000
 --- exit write_ns ---
 Atomic wfc used for LDA+U Projector are NOT orthogonalized
     Starting wfc are   26 randomized atomic wfcs +    6 random wfc

     total cpu time spent up to now is        4.4 secs

     per-process dynamical memory:    81.9 Mb

     Self-consistent Calculation

     iteration #  1     ecut=   360.00 Ry     beta=0.30
     Davidson diagonalization with overlap
     ethr =  1.00E-02,  avg # of iterations =  4.3
 --- enter write_ns ---
 LDA+U parameters:
U(  1) =   4.3000   J(  1) =   0.0000   B(  1) =   0.0000
U(  2) =   4.3000   J(  2) =   0.0000   B(  2) =   0.0000
atom    1   Tr[ns(na)] (up, down, total) =   0.27678  2.63766  2.91445
   spin  1
    eigenvalues: 
  0.041  0.041  0.051  0.072  0.072
    eigenvectors:
  0.732  0.058  0.000  0.064  0.146
  0.072  0.068  0.333  0.105  0.421
  0.008  0.132  0.333  0.525  0.002
  0.058  0.732  0.000  0.146  0.064
  0.130  0.010  0.333  0.160  0.367
    occupations:
  0.048 -0.005 -0.005  0.000 -0.010
 -0.005  0.060 -0.005 -0.009  0.005
 -0.005 -0.005  0.060  0.009  0.005
  0.000 -0.009  0.009  0.048 -0.000
 -0.010  0.005  0.005 -0.000  0.060
   spin  2
    eigenvalues: 
  0.493  0.493  0.543  0.543  0.567
    eigenvectors:
  0.920  0.031  0.016  0.032  0.000
  0.004  0.029  0.111  0.523  0.333
  0.014  0.019  0.629  0.005  0.333
  0.031  0.920  0.032  0.016  0.000
  0.031  0.001  0.211  0.423  0.333
    occupations:
  0.495 -0.004 -0.004  0.000 -0.009
 -0.004  0.549  0.009 -0.008 -0.009
 -0.004  0.009  0.549  0.008 -0.009
  0.000 -0.008  0.008  0.495 -0.000
 -0.009 -0.009 -0.009 -0.000  0.549
atomic mag. moment =    -2.360881
atom    2   Tr[ns(na)] (up, down, total) =   2.63766  0.27678  2.91445
   spin  1
    eigenvalues: 
  0.493  0.493  0.543  0.543  0.567
    eigenvectors:
  0.945  0.006  0.027  0.021  0.000
  0.006  0.026  0.025  0.609  0.333
  0.010  0.022  0.570  0.065  0.333
  0.006  0.945  0.021  0.027  0.000
  0.032  0.000  0.357  0.277  0.333
    occupations:
  0.495 -0.004 -0.004  0.000 -0.009
 -0.004  0.549  0.009 -0.008 -0.009
 -0.004  0.009  0.549  0.008 -0.009
  0.000 -0.008  0.008  0.495 -0.000
 -0.009 -0.009 -0.009 -0.000  0.549
   spin  2
    eigenvalues: 
  0.041  0.041  0.051  0.072  0.072
    eigenvectors:
  0.763  0.027  0.000  0.066  0.144
  0.059  0.081  0.333  0.100  0.426
  0.015  0.125  0.333  0.524  0.003
  0.027  0.763  0.000  0.144  0.066
  0.135  0.005  0.333  0.166  0.361
    occupations:
  0.048 -0.005 -0.005  0.000 -0.010
 -0.005  0.060 -0.005 -0.009  0.005
 -0.005 -0.005  0.060  0.009  0.005
  0.000 -0.009  0.009  0.048 -0.000
 -0.010  0.005  0.005 -0.000  0.060
atomic mag. moment =     2.360880
N of occupied +U levels =    5.828891
 --- exit write_ns ---
 Modify starting ns matrices according to input values 
 --- enter write_ns ---
 LDA+U parameters:
U(  1) =   4.3000   J(  1) =   0.0000   B(  1) =   0.0000
U(  2) =   4.3000   J(  2) =   0.0000   B(  2) =   0.0000
atom    1   Tr[ns(na)] (up, down, total) =   1.22614  2.63766  3.86380
   spin  1
    eigenvalues: 
  0.041  0.041  0.072  0.072  1.000
    eigenvectors:
  0.420  0.370  0.081  0.129  0.000
  0.128  0.012  0.072  0.455  0.333
  0.007  0.133  0.516  0.011  0.333
  0.370  0.420  0.129  0.081  0.000
  0.074  0.066  0.203  0.324  0.333
    occupations:
  0.048 -0.005 -0.005 -0.000 -0.010
 -0.005  0.377  0.312 -0.009 -0.312
 -0.005  0.312  0.377  0.009 -0.312
 -0.000 -0.009  0.009  0.048 -0.000
 -0.010 -0.312 -0.312 -0.000  0.377
   spin  2
    eigenvalues: 
  0.493  0.493  0.543  0.543  0.567
    eigenvectors:
  0.924  0.028  0.022  0.027  0.000
  0.004  0.029  0.062  0.572  0.333
  0.013  0.019  0.608  0.027  0.333
  0.028  0.924  0.027  0.022  0.000
  0.032  0.001  0.282  0.352  0.333
    occupations:
  0.495 -0.004 -0.004  0.000 -0.009
 -0.004  0.549  0.009 -0.008 -0.009
 -0.004  0.009  0.549  0.008 -0.009
  0.000 -0.008  0.008  0.495 -0.000
 -0.009 -0.009 -0.009 -0.000  0.549
atomic mag. moment =    -1.411523
atom    2   Tr[ns(na)] (up, down, total) =   2.63766  1.22614  3.86380
   spin  1
    eigenvalues: 
  0.493  0.493  0.543  0.543  0.567
    eigenvectors:
  0.936  0.015  0.034  0.015  0.000
  0.005  0.028  0.002  0.632  0.333
  0.012  0.021  0.504  0.130  0.333
  0.015  0.936  0.015  0.034  0.000
  0.032  0.001  0.445  0.189  0.333
    occupations:
  0.495 -0.004 -0.004  0.000 -0.009
 -0.004  0.549  0.009 -0.008 -0.009
 -0.004  0.009  0.549  0.008 -0.009
  0.000 -0.008  0.008  0.495 -0.000
 -0.009 -0.009 -0.009 -0.000  0.549
   spin  2
    eigenvalues: 
  0.041  0.041  0.072  0.072  1.000
    eigenvectors:
  0.570  0.220  0.043  0.167  0.000
  0.109  0.031  0.157  0.370  0.333
  0.000  0.140  0.525  0.002  0.333
  0.220  0.570  0.167  0.043  0.000
  0.101  0.039  0.108  0.419  0.333
    occupations:
  0.048 -0.005 -0.005 -0.000 -0.010
 -0.005  0.377  0.312 -0.009 -0.312
 -0.005  0.312  0.377  0.009 -0.312
 -0.000 -0.009  0.009  0.048 -0.000
 -0.010 -0.312 -0.312 -0.000  0.377
atomic mag. moment =     1.411522
N of occupied +U levels =    7.727607
 --- exit write_ns ---
 --- in v_hubbard ---
Hubbard energies (dc, U, total)    3.4971   3.9567   0.4596
 -------

     total cpu time spent up to now is       18.6 secs

     total energy              =    -552.87400980 Ry
     Harris-Foulkes estimate   =    -567.35498149 Ry
     estimated scf accuracy    <      38.46959303 Ry

     total magnetization       =     0.00 Bohr mag/cell
     absolute magnetization    =     6.02 Bohr mag/cell

     iteration #  2     ecut=   360.00 Ry     beta=0.30
     Davidson diagonalization with overlap
     ethr =  1.00E-02,  avg # of iterations =  4.0
 --- enter write_ns ---
 LDA+U parameters:
U(  1) =   4.3000   J(  1) =   0.0000   B(  1) =   0.0000
U(  2) =   4.3000   J(  2) =   0.0000   B(  2) =   0.0000
atom    1   Tr[ns(na)] (up, down, total) =   1.54724  4.85086  6.39810
   spin  1
    eigenvalues: 
  0.101  0.101  0.219  0.219  0.906
    eigenvectors:
  0.006  0.002  0.968  0.024  0.000
  0.000  0.661  0.002  0.003  0.333
  0.502  0.159  0.001  0.005  0.333
  0.002  0.006  0.024  0.968  0.000
  0.490  0.172  0.005  0.000  0.333
    occupations:
  0.218  0.004  0.004 -0.000  0.009
  0.004  0.370  0.268  0.007 -0.268
  0.004  0.268  0.370 -0.007 -0.268
 -0.000  0.007 -0.007  0.218 -0.000
  0.009 -0.268 -0.268 -0.000  0.370
   spin  2
    eigenvalues: 
  0.964  0.964  0.969  0.977  0.977
    eigenvectors:
  0.022  0.034  0.000  0.858  0.086
  0.081  0.548  0.333  0.020  0.017
  0.614  0.015  0.333  0.002  0.036
  0.034  0.022  0.000  0.086  0.858
  0.249  0.380  0.333  0.034  0.003
    occupations:
  0.976  0.001  0.001 -0.000  0.002
  0.001  0.966  0.001  0.002 -0.001
  0.001  0.001  0.966 -0.002 -0.001
 -0.000  0.002 -0.002  0.976 -0.000
  0.002 -0.001 -0.001 -0.000  0.966
atomic mag. moment =    -3.303620
atom    2   Tr[ns(na)] (up, down, total) =   4.85086  1.54724  6.39811
   spin  1
    eigenvalues: 
  0.964  0.964  0.969  0.977  0.977
    eigenvectors:
  0.022  0.034  0.000  0.864  0.080
  0.085  0.545  0.333  0.020  0.017
  0.616  0.014  0.333  0.002  0.035
  0.034  0.022  0.000  0.080  0.864
  0.244  0.386  0.333  0.034  0.003
    occupations:
  0.976  0.001  0.001 -0.000  0.002
  0.001  0.966  0.001  0.002 -0.001
  0.001  0.001  0.966 -0.002 -0.001
 -0.000  0.002 -0.002  0.976 -0.000
  0.002 -0.001 -0.001 -0.000  0.966
   spin  2
    eigenvalues: 
  0.101  0.101  0.219  0.219  0.906
    eigenvectors:
  0.003  0.005  0.802  0.190  0.000
  0.080  0.581  0.004  0.002  0.333
  0.643  0.018  0.000  0.005  0.333
  0.005  0.003  0.190  0.802  0.000
  0.269  0.393  0.004  0.001  0.333
    occupations:
  0.218  0.004  0.004 -0.000  0.009
  0.004  0.370  0.268  0.007 -0.268
  0.004  0.268  0.370 -0.007 -0.268
 -0.000  0.007 -0.007  0.218 -0.000
  0.009 -0.268 -0.268 -0.000  0.370
atomic mag. moment =     3.303620
N of occupied +U levels =   12.796210
 --- exit write_ns ---
 --- in v_hubbard ---
Hubbard energies (dc, U, total)    5.0969   5.5626   0.4657
 -------

     total cpu time spent up to now is       31.9 secs

     total energy              =    -557.84235873 Ry
     Harris-Foulkes estimate   =    -558.87823370 Ry
     estimated scf accuracy    <       4.52284854 Ry

     total magnetization       =    -0.00 Bohr mag/cell
     absolute magnetization    =     6.99 Bohr mag/cell

     iteration #  3     ecut=   360.00 Ry     beta=0.30
     Davidson diagonalization with overlap
     ethr =  1.00E-02,  avg # of iterations =  2.0
 --- enter write_ns ---
 LDA+U parameters:
U(  1) =   4.3000   J(  1) =   0.0000   B(  1) =   0.0000
U(  2) =   4.3000   J(  2) =   0.0000   B(  2) =   0.0000
atom    1   Tr[ns(na)] (up, down, total) =   1.03581  4.78537  5.82119
   spin  1
    eigenvalues: 
  0.025  0.025  0.064  0.064  0.858
    eigenvectors:
  0.028  0.002  0.886  0.084  0.000
  0.035  0.612  0.011  0.009  0.333
  0.340  0.306  0.001  0.019  0.333
  0.002  0.028  0.084  0.886  0.000
  0.594  0.052  0.018  0.002  0.333
    occupations:
  0.063  0.003  0.003 -0.000  0.006
  0.003  0.303  0.277  0.005 -0.277
  0.003  0.277  0.303 -0.005 -0.277
 -0.000  0.005 -0.005  0.063 -0.000
  0.006 -0.277 -0.277 -0.000  0.303
   spin  2
    eigenvalues: 
  0.946  0.946  0.948  0.973  0.973
    eigenvectors:
  0.037  0.063  0.000  0.772  0.128
  0.086  0.514  0.333  0.042  0.025
  0.589  0.011  0.333  0.001  0.065
  0.063  0.037  0.000  0.128  0.772
  0.225  0.375  0.333  0.057  0.009
    occupations:
  0.970  0.003  0.003 -0.000  0.007
  0.003  0.948 -0.000  0.006  0.000
  0.003 -0.000  0.948 -0.006  0.000
 -0.000  0.006 -0.006  0.970 -0.000
  0.007  0.000  0.000 -0.000  0.948
atomic mag. moment =    -3.749561
atom    2   Tr[ns(na)] (up, down, total) =   4.78537  1.03581  5.82119
   spin  1
    eigenvalues: 
  0.946  0.946  0.948  0.973  0.973
    eigenvectors:
  0.032  0.068  0.000  0.841  0.059
  0.110  0.490  0.333  0.033  0.034
  0.596  0.004  0.333  0.005  0.062
  0.068  0.032  0.000  0.059  0.841
  0.194  0.406  0.333  0.062  0.004
    occupations:
  0.970  0.003  0.003 -0.000  0.007
  0.003  0.948 -0.000  0.006  0.000
  0.003 -0.000  0.948 -0.006  0.000
 -0.000  0.006 -0.006  0.970 -0.000
  0.007  0.000  0.000 -0.000  0.948
   spin  2
    eigenvalues: 
  0.025  0.025  0.064  0.064  0.858
    eigenvectors:
  0.013  0.017  0.966  0.004  0.000
  0.067  0.580  0.006  0.014  0.333
  0.622  0.025  0.004  0.016  0.333
  0.017  0.013  0.004  0.966  0.000
  0.281  0.366  0.020  0.000  0.333
    occupations:
  0.063  0.003  0.003 -0.000  0.006
  0.003  0.303  0.277  0.005 -0.277
  0.003  0.277  0.303 -0.005 -0.277
 -0.000  0.005 -0.005  0.063 -0.000
  0.006 -0.277 -0.277 -0.000  0.303
atomic mag. moment =     3.749561
N of occupied +U levels =   11.642374
 --- exit write_ns ---
 --- in v_hubbard ---
Hubbard energies (dc, U, total)    6.3567   6.7530   0.3962
 -------

     total cpu time spent up to now is       40.2 secs

     total energy              =    -558.66679096 Ry
     Harris-Foulkes estimate   =    -558.54216396 Ry
     estimated scf accuracy    <       0.67094328 Ry

     total magnetization       =     0.00 Bohr mag/cell
     absolute magnetization    =     7.76 Bohr mag/cell

     iteration #  4     ecut=   360.00 Ry     beta=0.30
     Davidson diagonalization with overlap
     ethr =  1.52E-03,  avg # of iterations =  1.8
 --- enter write_ns ---
 LDA+U parameters:
U(  1) =   4.3000   J(  1) =   0.0000   B(  1) =   0.0000
U(  2) =   4.3000   J(  2) =   0.0000   B(  2) =   0.0000
atom    1   Tr[ns(na)] (up, down, total) =   1.12158  4.83401  5.95560
   spin  1
    eigenvalues: 
  0.026  0.026  0.080  0.080  0.909
    eigenvectors:
  0.000  0.046  0.782  0.172  0.000
  0.459  0.177  0.021  0.010  0.333
  0.495  0.141  0.000  0.030  0.333
  0.046  0.000  0.172  0.782  0.000
  0.001  0.635  0.025  0.006  0.333
    occupations:
  0.077  0.005  0.005 -0.000  0.009
  0.005  0.322  0.293  0.008 -0.293
  0.005  0.293  0.322 -0.008 -0.293
 -0.000  0.008 -0.008  0.077 -0.000
  0.009 -0.293 -0.293 -0.000  0.322
   spin  2
    eigenvalues: 
  0.958  0.959  0.959  0.979  0.979
    eigenvectors:
  0.000  0.028  0.076  0.834  0.062
  0.333  0.140  0.457  0.035  0.034
  0.333  0.597  0.000  0.005  0.065
  0.000  0.076  0.028  0.062  0.834
  0.333  0.159  0.438  0.065  0.005
    occupations:
  0.977  0.002  0.002 -0.000  0.005
  0.002  0.960 -0.001  0.004  0.001
  0.002 -0.001  0.960 -0.004  0.001
 -0.000  0.004 -0.004  0.977 -0.000
  0.005  0.001  0.001 -0.000  0.960
atomic mag. moment =    -3.712431
atom    2   Tr[ns(na)] (up, down, total) =   4.83401  1.12158  5.95560
   spin  1
    eigenvalues: 
  0.958  0.959  0.959  0.979  0.979
    eigenvectors:
  0.000  0.042  0.062  0.766  0.130
  0.333  0.073  0.525  0.044  0.026
  0.333  0.581  0.017  0.001  0.068
  0.000  0.062  0.042  0.130  0.766
  0.333  0.242  0.355  0.059  0.010
    occupations:
  0.977  0.002  0.002 -0.000  0.005
  0.002  0.960 -0.001  0.004  0.001
  0.002 -0.001  0.960 -0.004  0.001
 -0.000  0.004 -0.004  0.977 -0.000
  0.005  0.001  0.001 -0.000  0.960
   spin  2
    eigenvalues: 
  0.026  0.026  0.080  0.080  0.909
    eigenvectors:
  0.000  0.045  0.835  0.119  0.000
  0.425  0.211  0.018  0.012  0.333
  0.524  0.112  0.001  0.030  0.333
  0.045  0.000  0.119  0.835  0.000
  0.005  0.631  0.027  0.004  0.333
    occupations:
  0.077  0.005  0.005 -0.000  0.009
  0.005  0.322  0.293  0.008 -0.293
  0.005  0.293  0.322 -0.008 -0.293
 -0.000  0.008 -0.008  0.077 -0.000
  0.009 -0.293 -0.293 -0.000  0.322
atomic mag. moment =     3.712431
N of occupied +U levels =   11.911193
 --- exit write_ns ---
 --- in v_hubbard ---
Hubbard energies (dc, U, total)    9.1663   9.3247   0.1584
 -------

     total cpu time spent up to now is       48.3 secs

     total energy              =    -558.84625459 Ry
     Harris-Foulkes estimate   =    -558.70143085 Ry
     estimated scf accuracy    <       0.22941941 Ry

     total magnetization       =     0.00 Bohr mag/cell
     absolute magnetization    =     7.66 Bohr mag/cell

     iteration #  5     ecut=   360.00 Ry     beta=0.30
     Davidson diagonalization with overlap
     ethr =  5.21E-04,  avg # of iterations =  2.0
 --- enter write_ns ---
 LDA+U parameters:
U(  1) =   4.3000   J(  1) =   0.0000   B(  1) =   0.0000
U(  2) =   4.3000   J(  2) =   0.0000   B(  2) =   0.0000
atom    1   Tr[ns(na)] (up, down, total) =   1.19445  4.84593  6.04038
   spin  1
    eigenvalues: 
  0.029  0.029  0.101  0.101  0.933
    eigenvectors:
  0.033  0.046  0.871  0.050  0.000
  0.595  0.020  0.025  0.028  0.333
  0.070  0.545  0.004  0.048  0.333
  0.046  0.033  0.050  0.871  0.000
  0.257  0.357  0.049  0.003  0.333
    occupations:
  0.096  0.008  0.008 -0.000  0.016
  0.008  0.334  0.299  0.014 -0.299
  0.008  0.299  0.334 -0.014 -0.299
 -0.000  0.014 -0.014  0.096 -0.000
  0.016 -0.299 -0.299 -0.000  0.334
   spin  2
    eigenvalues: 
  0.958  0.964  0.964  0.981  0.981
    eigenvectors:
  0.000  0.030  0.092  0.819  0.060
  0.333  0.150  0.436  0.041  0.040
  0.333  0.586  0.000  0.005  0.076
  0.000  0.092  0.030  0.060  0.819
  0.333  0.143  0.443  0.075  0.006
    occupations:
  0.979  0.002  0.002 -0.000  0.005
  0.002  0.963 -0.003  0.004  0.003
  0.002 -0.003  0.963 -0.004  0.003
 -0.000  0.004 -0.004  0.979 -0.000
  0.005  0.003  0.003 -0.000  0.963
atomic mag. moment =    -3.651482
atom    2   Tr[ns(na)] (up, down, total) =   4.84593  1.19445  6.04038
   spin  1
    eigenvalues: 
  0.958  0.964  0.964  0.981  0.981
    eigenvectors:
  0.000  0.061  0.061  0.718  0.161
  0.333  0.039  0.546  0.055  0.026
  0.333  0.547  0.039  0.001  0.080
  0.000  0.061  0.061  0.161  0.718
  0.333  0.293  0.293  0.066  0.015
    occupations:
  0.979  0.002  0.002 -0.000  0.005
  0.002  0.963 -0.003  0.004  0.003
  0.002 -0.003  0.963 -0.004  0.003
 -0.000  0.004 -0.004  0.979 -0.000
  0.005  0.003  0.003 -0.000  0.963
   spin  2
    eigenvalues: 
  0.029  0.029  0.101  0.101  0.933
    eigenvectors:
  0.000  0.078  0.539  0.383  0.000
  0.451  0.164  0.046  0.006  0.333
  0.471  0.144  0.002  0.051  0.333
  0.078  0.000  0.383  0.539  0.000
  0.000  0.614  0.031  0.022  0.333
    occupations:
  0.096  0.008  0.008 -0.000  0.016
  0.008  0.334  0.299  0.014 -0.299
  0.008  0.299  0.334 -0.014 -0.299
 -0.000  0.014 -0.014  0.096 -0.000
  0.016 -0.299 -0.299 -0.000  0.334
atomic mag. moment =     3.651482
N of occupied +U levels =   12.080751
 --- exit write_ns ---
 --- in v_hubbard ---
Hubbard energies (dc, U, total)    9.4800   9.6162   0.1362
 -------

     total cpu time spent up to now is       56.4 secs

     total energy              =    -558.85308993 Ry
     Harris-Foulkes estimate   =    -558.86106192 Ry
     estimated scf accuracy    <       0.02431479 Ry

     total magnetization       =    -0.00 Bohr mag/cell
     absolute magnetization    =     7.53 Bohr mag/cell

     iteration #  6     ecut=   360.00 Ry     beta=0.30
     Davidson diagonalization with overlap
     ethr =  5.53E-05,  avg # of iterations =  2.3
 --- enter write_ns ---
 LDA+U parameters:
U(  1) =   4.3000   J(  1) =   0.0000   B(  1) =   0.0000
U(  2) =   4.3000   J(  2) =   0.0000   B(  2) =   0.0000
atom    1   Tr[ns(na)] (up, down, total) =   1.16317  4.82851  5.99167
   spin  1
    eigenvalues: 
  0.027  0.027  0.091  0.091  0.927
    eigenvectors:
  0.015  0.062  0.901  0.022  0.000
  0.613  0.003  0.020  0.031  0.333
  0.190  0.425  0.007  0.045  0.333
  0.062  0.015  0.022  0.901  0.000
  0.120  0.495  0.050  0.001  0.333
    occupations:
  0.086  0.007  0.007 -0.000  0.014
  0.007  0.330  0.298  0.012 -0.298
  0.007  0.298  0.330 -0.012 -0.298
 -0.000  0.012 -0.012  0.086 -0.000
  0.014 -0.298 -0.298 -0.000  0.330
   spin  2
    eigenvalues: 
  0.952  0.960  0.960  0.979  0.979
    eigenvectors:
  0.000  0.052  0.065  0.731  0.152
  0.333  0.057  0.532  0.052  0.026
  0.333  0.564  0.025  0.001  0.077
  0.000  0.065  0.052  0.152  0.731
  0.333  0.262  0.327  0.065  0.013
    occupations:
  0.976  0.002  0.002 -0.000  0.005
  0.002  0.959 -0.003  0.004  0.003
  0.002 -0.003  0.959 -0.004  0.003
 -0.000  0.004 -0.004  0.976 -0.000
  0.005  0.003  0.003 -0.000  0.959
atomic mag. moment =    -3.665344
atom    2   Tr[ns(na)] (up, down, total) =   4.82851  1.16317  5.99167
   spin  1
    eigenvalues: 
  0.952  0.960  0.960  0.979  0.979
    eigenvectors:
  0.000  0.031  0.086  0.768  0.115
  0.333  0.138  0.450  0.047  0.031
  0.333  0.589  0.000  0.002  0.076
  0.000  0.086  0.031  0.115  0.768
  0.333  0.156  0.432  0.068  0.010
    occupations:
  0.976  0.002  0.002 -0.000  0.005
  0.002  0.959 -0.003  0.004  0.003
  0.002 -0.003  0.959 -0.004  0.003
 -0.000  0.004 -0.004  0.976 -0.000
  0.005  0.003  0.003 -0.000  0.959
   spin  2
    eigenvalues: 
  0.027  0.027  0.091  0.091  0.927
    eigenvectors:
  0.002  0.075  0.842  0.081  0.000
  0.534  0.082  0.028  0.024  0.333
  0.376  0.240  0.002  0.049  0.333
  0.075  0.002  0.081  0.842  0.000
  0.014  0.602  0.047  0.005  0.333
    occupations:
  0.086  0.007  0.007 -0.000  0.014
  0.007  0.330  0.298  0.012 -0.298
  0.007  0.298  0.330 -0.012 -0.298
 -0.000  0.012 -0.012  0.086 -0.000
  0.014 -0.298 -0.298 -0.000  0.330
atomic mag. moment =     3.665344
N of occupied +U levels =   11.983349
 --- exit write_ns ---
 --- in v_hubbard ---
Hubbard energies (dc, U, total)    9.5163   9.6516   0.1353
 -------

     total cpu time spent up to now is       65.3 secs

     total energy              =    -558.85752092 Ry
     Harris-Foulkes estimate   =    -558.85727392 Ry
     estimated scf accuracy    <       0.00057818 Ry

     total magnetization       =    -0.00 Bohr mag/cell
     absolute magnetization    =     7.55 Bohr mag/cell

     iteration #  7     ecut=   360.00 Ry     beta=0.30
     Davidson diagonalization with overlap
     ethr =  1.31E-06,  avg # of iterations =  2.5
 --- enter write_ns ---
 LDA+U parameters:
U(  1) =   4.3000   J(  1) =   0.0000   B(  1) =   0.0000
U(  2) =   4.3000   J(  2) =   0.0000   B(  2) =   0.0000
atom    1   Tr[ns(na)] (up, down, total) =   1.16222  4.82580  5.98802
   spin  1
    eigenvalues: 
  0.027  0.027  0.090  0.090  0.928
    eigenvectors:
  0.000  0.077  0.887  0.036  0.000
  0.484  0.132  0.022  0.029  0.333
  0.438  0.177  0.005  0.046  0.333
  0.077  0.000  0.036  0.887  0.000
  0.001  0.614  0.049  0.002  0.333
    occupations:
  0.086  0.007  0.007 -0.000  0.014
  0.007  0.330  0.299  0.012 -0.299
  0.007  0.299  0.330 -0.012 -0.299
 -0.000  0.012 -0.012  0.086 -0.000
  0.014 -0.299 -0.299 -0.000  0.330
   spin  2
    eigenvalues: 
  0.951  0.959  0.959  0.978  0.978
    eigenvectors:
  0.000  0.055  0.061  0.865  0.020
  0.333  0.047  0.542  0.030  0.047
  0.333  0.557  0.032  0.010  0.067
  0.000  0.061  0.055  0.020  0.865
  0.333  0.280  0.310  0.075  0.002
    occupations:
  0.976  0.003  0.003 -0.000  0.005
  0.003  0.958 -0.004  0.004  0.004
  0.003 -0.004  0.958 -0.004  0.004
 -0.000  0.004 -0.004  0.976 -0.000
  0.005  0.004  0.004 -0.000  0.958
atomic mag. moment =    -3.663579
atom    2   Tr[ns(na)] (up, down, total) =   4.82580  1.16222  5.98802
   spin  1
    eigenvalues: 
  0.951  0.959  0.959  0.978  0.978
    eigenvectors:
  0.000  0.039  0.076  0.837  0.048
  0.333  0.100  0.490  0.036  0.041
  0.333  0.584  0.006  0.006  0.071
  0.000  0.076  0.039  0.048  0.837
  0.333  0.201  0.389  0.073  0.004
    occupations:
  0.976  0.003  0.003 -0.000  0.005
  0.003  0.958 -0.004  0.004  0.004
  0.003 -0.004  0.958 -0.004  0.004
 -0.000  0.004 -0.004  0.976 -0.000
  0.005  0.004  0.004 -0.000  0.958
   spin  2
    eigenvalues: 
  0.027  0.027  0.090  0.090  0.928
    eigenvectors:
  0.000  0.077  0.872  0.051  0.000
  0.486  0.129  0.024  0.027  0.333
  0.435  0.180  0.004  0.047  0.333
  0.077  0.000  0.051  0.872  0.000
  0.001  0.614  0.049  0.003  0.333
    occupations:
  0.086  0.007  0.007 -0.000  0.014
  0.007  0.330  0.299  0.012 -0.299
  0.007  0.299  0.330 -0.012 -0.299
 -0.000  0.012 -0.012  0.086 -0.000
  0.014 -0.299 -0.299 -0.000  0.330
atomic mag. moment =     3.663579
N of occupied +U levels =   11.976034
 --- exit write_ns ---
 --- in v_hubbard ---
Hubbard energies (dc, U, total)    9.4674   9.6091   0.1417
 -------

     total cpu time spent up to now is       75.0 secs

     total energy              =    -558.85757416 Ry
     Harris-Foulkes estimate   =    -558.85762395 Ry
     estimated scf accuracy    <       0.00048721 Ry

     total magnetization       =     0.00 Bohr mag/cell
     absolute magnetization    =     7.55 Bohr mag/cell

     iteration #  8     ecut=   360.00 Ry     beta=0.30
     Davidson diagonalization with overlap
     ethr =  1.11E-06,  avg # of iterations =  2.0
 --- enter write_ns ---
 LDA+U parameters:
U(  1) =   4.3000   J(  1) =   0.0000   B(  1) =   0.0000
U(  2) =   4.3000   J(  2) =   0.0000   B(  2) =   0.0000
atom    1   Tr[ns(na)] (up, down, total) =   1.16829  4.82750  5.99579
   spin  1
    eigenvalues: 
  0.027  0.027  0.092  0.092  0.930
    eigenvectors:
  0.076  0.001  0.497  0.426  0.000
  0.091  0.524  0.047  0.005  0.333
  0.227  0.388  0.003  0.049  0.333
  0.001  0.076  0.426  0.497  0.000
  0.605  0.010  0.028  0.024  0.333
    occupations:
  0.087  0.007  0.007 -0.000  0.014
  0.007  0.331  0.299  0.012 -0.299
  0.007  0.299  0.331 -0.012 -0.299
 -0.000  0.012 -0.012  0.087 -0.000
  0.014 -0.299 -0.299 -0.000  0.331
   spin  2
    eigenvalues: 
  0.951  0.960  0.960  0.979  0.979
    eigenvectors:
  0.000  0.027  0.087  0.789  0.097
  0.333  0.157  0.434  0.044  0.032
  0.333  0.591  0.000  0.003  0.073
  0.000  0.087  0.027  0.097  0.789
  0.333  0.139  0.452  0.068  0.008
    occupations:
  0.976  0.002  0.002 -0.000  0.005
  0.002  0.958 -0.004  0.004  0.004
  0.002 -0.004  0.958 -0.004  0.004
 -0.000  0.004 -0.004  0.976 -0.000
  0.005  0.004  0.004 -0.000  0.958
atomic mag. moment =    -3.659208
atom    2   Tr[ns(na)] (up, down, total) =   4.82750  1.16829  5.99579
   spin  1
    eigenvalues: 
  0.951  0.960  0.960  0.979  0.979
    eigenvectors:
  0.000  0.029  0.085  0.886  0.000
  0.333  0.143  0.447  0.019  0.057
  0.333  0.591  0.000  0.019  0.057
  0.000  0.085  0.029  0.000  0.886
  0.333  0.152  0.439  0.076  0.000
    occupations:
  0.976  0.002  0.002 -0.000  0.005
  0.002  0.958 -0.004  0.004  0.004
  0.002 -0.004  0.958 -0.004  0.004
 -0.000  0.004 -0.004  0.976 -0.000
  0.005  0.004  0.004 -0.000  0.958
   spin  2
    eigenvalues: 
  0.027  0.027  0.092  0.092  0.930
    eigenvectors:
  0.077  0.000  0.264  0.658  0.000
  0.195  0.419  0.052  0.000  0.333
  0.116  0.499  0.011  0.041  0.333
  0.000  0.077  0.658  0.264  0.000
  0.611  0.003  0.015  0.037  0.333
    occupations:
  0.087  0.007  0.007 -0.000  0.014
  0.007  0.331  0.299  0.012 -0.299
  0.007  0.299  0.331 -0.012 -0.299
 -0.000  0.012 -0.012  0.087 -0.000
  0.014 -0.299 -0.299 -0.000  0.331
atomic mag. moment =     3.659208
N of occupied +U levels =   11.991576
 --- exit write_ns ---
 --- in v_hubbard ---
Hubbard energies (dc, U, total)    9.4669   9.6090   0.1420
 -------

     total cpu time spent up to now is       83.7 secs

     total energy              =    -558.85768200 Ry
     Harris-Foulkes estimate   =    -558.85768770 Ry
     estimated scf accuracy    <       0.00002668 Ry

     total magnetization       =    -0.00 Bohr mag/cell
     absolute magnetization    =     7.54 Bohr mag/cell

     iteration #  9     ecut=   360.00 Ry     beta=0.30
     Davidson diagonalization with overlap
     ethr =  6.06E-08,  avg # of iterations =  2.0
 --- enter write_ns ---
 LDA+U parameters:
U(  1) =   4.3000   J(  1) =   0.0000   B(  1) =   0.0000
U(  2) =   4.3000   J(  2) =   0.0000   B(  2) =   0.0000
atom    1   Tr[ns(na)] (up, down, total) =   1.16738  4.82669  5.99407
   spin  1
    eigenvalues: 
  0.027  0.027  0.092  0.092  0.930
    eigenvectors:
  0.000  0.078  0.478  0.444  0.000
  0.487  0.128  0.048  0.004  0.333
  0.434  0.181  0.003  0.049  0.333
  0.078  0.000  0.444  0.478  0.000
  0.002  0.613  0.027  0.025  0.333
    occupations:
  0.087  0.007  0.007 -0.000  0.014
  0.007  0.331  0.299  0.012 -0.299
  0.007  0.299  0.331 -0.012 -0.299
 -0.000  0.012 -0.012  0.087 -0.000
  0.014 -0.299 -0.299 -0.000  0.331
   spin  2
    eigenvalues: 
  0.951  0.959  0.959  0.978  0.978
    eigenvectors:
  0.000  0.034  0.080  0.788  0.098
  0.333  0.120  0.471  0.044  0.032
  0.333  0.589  0.002  0.003  0.073
  0.000  0.080  0.034  0.098  0.788
  0.333  0.177  0.413  0.068  0.008
    occupations:
  0.976  0.002  0.002 -0.000  0.005
  0.002  0.958 -0.004  0.004  0.004
  0.002 -0.004  0.958 -0.004  0.004
 -0.000  0.004 -0.004  0.976 -0.000
  0.005  0.004  0.004 -0.000  0.958
atomic mag. moment =    -3.659311
atom    2   Tr[ns(na)] (up, down, total) =   4.82669  1.16738  5.99407
   spin  1
    eigenvalues: 
  0.951  0.959  0.959  0.978  0.978
    eigenvectors:
  0.000  0.046  0.068  0.754  0.132
  0.333  0.071  0.519  0.048  0.028
  0.333  0.574  0.017  0.001  0.075
  0.000  0.068  0.046  0.132  0.754
  0.333  0.241  0.350  0.065  0.011
    occupations:
  0.976  0.002  0.002 -0.000  0.005
  0.002  0.958 -0.004  0.004  0.004
  0.002 -0.004  0.958 -0.004  0.004
 -0.000  0.004 -0.004  0.976 -0.000
  0.005  0.004  0.004 -0.000  0.958
   spin  2
    eigenvalues: 
  0.027  0.027  0.092  0.092  0.930
    eigenvectors:
  0.027  0.050  0.757  0.165  0.000
  0.607  0.008  0.035  0.017  0.333
  0.099  0.516  0.000  0.051  0.333
  0.050  0.027  0.165  0.757  0.000
  0.216  0.399  0.043  0.009  0.333
    occupations:
  0.087  0.007  0.007 -0.000  0.014
  0.007  0.331  0.299  0.012 -0.299
  0.007  0.299  0.331 -0.012 -0.299
 -0.000  0.012 -0.012  0.087 -0.000
  0.014 -0.299 -0.299 -0.000  0.331
atomic mag. moment =     3.659311
N of occupied +U levels =   11.988142
 --- exit write_ns ---
 --- in v_hubbard ---
Hubbard energies (dc, U, total)    9.4624   9.6049   0.1425
 -------

     total cpu time spent up to now is       92.9 secs

     total energy              =    -558.85768983 Ry
     Harris-Foulkes estimate   =    -558.85768820 Ry
     estimated scf accuracy    <       0.00000419 Ry

     total magnetization       =     0.00 Bohr mag/cell
     absolute magnetization    =     7.54 Bohr mag/cell

     iteration # 10     ecut=   360.00 Ry     beta=0.30
     Davidson diagonalization with overlap
     ethr =  9.52E-09,  avg # of iterations =  2.0
 --- enter write_ns ---
 LDA+U parameters:
U(  1) =   4.3000   J(  1) =   0.0000   B(  1) =   0.0000
U(  2) =   4.3000   J(  2) =   0.0000   B(  2) =   0.0000
atom    1   Tr[ns(na)] (up, down, total) =   1.16788  4.82664  5.99452
   spin  1
    eigenvalues: 
  0.027  0.027  0.092  0.092  0.930
    eigenvectors:
  0.004  0.074  0.223  0.699  0.000
  0.330  0.285  0.052  0.000  0.333
  0.561  0.053  0.013  0.039  0.333
  0.074  0.004  0.699  0.223  0.000
  0.031  0.584  0.013  0.039  0.333
    occupations:
  0.087  0.007  0.007 -0.000  0.014
  0.007  0.331  0.299  0.012 -0.299
  0.007  0.299  0.331 -0.012 -0.299
 -0.000  0.012 -0.012  0.087 -0.000
  0.014 -0.299 -0.299 -0.000  0.331
   spin  2
    eigenvalues: 
  0.951  0.959  0.959  0.978  0.978
    eigenvectors:
  0.000  0.061  0.054  0.868  0.018
  0.333  0.031  0.559  0.029  0.047
  0.333  0.541  0.049  0.011  0.066
  0.000  0.054  0.061  0.018  0.868
  0.333  0.313  0.277  0.075  0.002
    occupations:
  0.976  0.002  0.002 -0.000  0.005
  0.002  0.958 -0.004  0.004  0.004
  0.002 -0.004  0.958 -0.004  0.004
 -0.000  0.004 -0.004  0.976 -0.000
  0.005  0.004  0.004 -0.000  0.958
atomic mag. moment =    -3.658755
atom    2   Tr[ns(na)] (up, down, total) =   4.82664  1.16788  5.99452
   spin  1
    eigenvalues: 
  0.951  0.959  0.959  0.978  0.978
    eigenvectors:
  0.000  0.053  0.061  0.878  0.007
  0.333  0.050  0.541  0.025  0.051
  0.333  0.560  0.030  0.013  0.063
  0.000  0.061  0.053  0.007  0.878
  0.333  0.276  0.315  0.076  0.001
    occupations:
  0.976  0.002  0.002 -0.000  0.005
  0.002  0.958 -0.004  0.004  0.004
  0.002 -0.004  0.958 -0.004  0.004
 -0.000  0.004 -0.004  0.976 -0.000
  0.005  0.004  0.004 -0.000  0.958
   spin  2
    eigenvalues: 
  0.027  0.027  0.092  0.092  0.930
    eigenvectors:
  0.005  0.073  0.872  0.050  0.000
  0.573  0.041  0.025  0.027  0.333
  0.308  0.307  0.004  0.048  0.333
  0.073  0.005  0.050  0.872  0.000
  0.041  0.574  0.049  0.003  0.333
    occupations:
  0.087  0.007  0.007 -0.000  0.014
  0.007  0.331  0.299  0.012 -0.299
  0.007  0.299  0.331 -0.012 -0.299
 -0.000  0.012 -0.012  0.087 -0.000
  0.014 -0.299 -0.299 -0.000  0.331
atomic mag. moment =     3.658755
N of occupied +U levels =   11.989048
 --- exit write_ns ---
 --- in v_hubbard ---
Hubbard energies (dc, U, total)    9.4619   9.6044   0.1425
 -------

     total cpu time spent up to now is      102.2 secs

     total energy              =    -558.85769115 Ry
     Harris-Foulkes estimate   =    -558.85769109 Ry
     estimated scf accuracy    <       0.00000013 Ry

     total magnetization       =     0.00 Bohr mag/cell
     absolute magnetization    =     7.54 Bohr mag/cell

     iteration # 11     ecut=   360.00 Ry     beta=0.30
     Davidson diagonalization with overlap
     ethr =  3.04E-10,  avg # of iterations =  2.0
 --- enter write_ns ---
 LDA+U parameters:
U(  1) =   4.3000   J(  1) =   0.0000   B(  1) =   0.0000
U(  2) =   4.3000   J(  2) =   0.0000   B(  2) =   0.0000
atom    1   Tr[ns(na)] (up, down, total) =   1.16784  4.82662  5.99446
   spin  1
    eigenvalues: 
  0.027  0.027  0.092  0.092  0.930
    eigenvectors:
  0.078  0.000  0.306  0.616  0.000
  0.156  0.459  0.052  0.000  0.333
  0.152  0.463  0.009  0.043  0.333
  0.000  0.078  0.616  0.306  0.000
  0.615  0.000  0.017  0.035  0.333
    occupations:
  0.087  0.007  0.007 -0.000  0.014
  0.007  0.331  0.299  0.012 -0.299
  0.007  0.299  0.331 -0.012 -0.299
 -0.000  0.012 -0.012  0.087 -0.000
  0.014 -0.299 -0.299 -0.000  0.331
   spin  2
    eigenvalues: 
  0.951  0.959  0.959  0.978  0.978
    eigenvectors:
  0.000  0.034  0.081  0.838  0.047
  0.333  0.122  0.468  0.036  0.040
  0.333  0.589  0.002  0.006  0.070
  0.000  0.081  0.034  0.047  0.838
  0.333  0.174  0.416  0.072  0.004
    occupations:
  0.976  0.002  0.002 -0.000  0.005
  0.002  0.958 -0.004  0.004  0.004
  0.002 -0.004  0.958 -0.004  0.004
 -0.000  0.004 -0.004  0.976 -0.000
  0.005  0.004  0.004 -0.000  0.958
atomic mag. moment =    -3.658772
atom    2   Tr[ns(na)] (up, down, total) =   4.82662  1.16784  5.99446
   spin  1
    eigenvalues: 
  0.951  0.959  0.959  0.978  0.978
    eigenvectors:
  0.000  0.028  0.087  0.723  0.162
  0.333  0.152  0.438  0.052  0.025
  0.333  0.590  0.000  0.001  0.076
  0.000  0.087  0.028  0.162  0.723
  0.333  0.143  0.447  0.062  0.014
    occupations:
  0.976  0.002  0.002 -0.000  0.005
  0.002  0.958 -0.004  0.004  0.004
  0.002 -0.004  0.958 -0.004  0.004
 -0.000  0.004 -0.004  0.976 -0.000
  0.005  0.004  0.004 -0.000  0.958
   spin  2
    eigenvalues: 
  0.027  0.027  0.092  0.092  0.930
    eigenvectors:
  0.043  0.035  0.750  0.172  0.000
  0.028  0.587  0.035  0.017  0.333
  0.558  0.057  0.000  0.052  0.333
  0.035  0.043  0.172  0.750  0.000
  0.337  0.278  0.042  0.010  0.333
    occupations:
  0.087  0.007  0.007 -0.000  0.014
  0.007  0.331  0.299  0.012 -0.299
  0.007  0.299  0.331 -0.012 -0.299
 -0.000  0.012 -0.012  0.087 -0.000
  0.014 -0.299 -0.299 -0.000  0.331
atomic mag. moment =     3.658772
N of occupied +U levels =   11.988922
 --- exit write_ns ---
 --- in v_hubbard ---
Hubbard energies (dc, U, total)    9.4620   9.6044   0.1425
 -------

     total cpu time spent up to now is      110.9 secs

     total energy              =    -558.85769120 Ry
     Harris-Foulkes estimate   =    -558.85769117 Ry
     estimated scf accuracy    <       0.00000003 Ry

     total magnetization       =     0.00 Bohr mag/cell
     absolute magnetization    =     7.54 Bohr mag/cell

     iteration # 12     ecut=   360.00 Ry     beta=0.30
     Davidson diagonalization with overlap
     ethr =  6.76E-11,  avg # of iterations =  2.0
 --- enter write_ns ---
 LDA+U parameters:
U(  1) =   4.3000   J(  1) =   0.0000   B(  1) =   0.0000
U(  2) =   4.3000   J(  2) =   0.0000   B(  2) =   0.0000
atom    1   Tr[ns(na)] (up, down, total) =   1.16784  4.82660  5.99443
   spin  1
    eigenvalues: 
  0.027  0.027  0.092  0.092  0.930
    eigenvectors:
  0.038  0.040  0.550  0.372  0.000
  0.576  0.039  0.046  0.006  0.333
  0.044  0.571  0.001  0.051  0.333
  0.040  0.038  0.372  0.550  0.000
  0.302  0.313  0.031  0.021  0.333
    occupations:
  0.087  0.007  0.007 -0.000  0.014
  0.007  0.331  0.299  0.012 -0.299
  0.007  0.299  0.331 -0.012 -0.299
 -0.000  0.012 -0.012  0.087 -0.000
  0.014 -0.299 -0.299 -0.000  0.331
   spin  2
    eigenvalues: 
  0.951  0.959  0.959  0.978  0.978
    eigenvectors:
  0.000  0.027  0.088  0.819  0.066
  0.333  0.157  0.433  0.039  0.037
  0.333  0.590  0.000  0.005  0.072
  0.000  0.088  0.027  0.066  0.819
  0.333  0.139  0.452  0.071  0.006
    occupations:
  0.976  0.002  0.002 -0.000  0.005
  0.002  0.958 -0.004  0.004  0.004
  0.002 -0.004  0.958 -0.004  0.004
 -0.000  0.004 -0.004  0.976 -0.000
  0.005  0.004  0.004 -0.000  0.958
atomic mag. moment =    -3.658757
atom    2   Tr[ns(na)] (up, down, total) =   4.82660  1.16784  5.99443
   spin  1
    eigenvalues: 
  0.951  0.959  0.959  0.978  0.978
    eigenvectors:
  0.000  0.066  0.049  0.863  0.023
  0.333  0.020  0.570  0.031  0.046
  0.333  0.526  0.064  0.010  0.067
  0.000  0.049  0.066  0.023  0.863
  0.333  0.339  0.251  0.074  0.002
    occupations:
  0.976  0.002  0.002 -0.000  0.005
  0.002  0.958 -0.004  0.004  0.004
  0.002 -0.004  0.958 -0.004  0.004
 -0.000  0.004 -0.004  0.976 -0.000
  0.005  0.004  0.004 -0.000  0.958
   spin  2
    eigenvalues: 
  0.027  0.027  0.092  0.092  0.930
    eigenvectors:
  0.065  0.013  0.396  0.526  0.000
  0.006  0.609  0.050  0.002  0.333
  0.408  0.207  0.006  0.046  0.333
  0.013  0.065  0.526  0.396  0.000
  0.509  0.106  0.022  0.030  0.333
    occupations:
  0.087  0.007  0.007 -0.000  0.014
  0.007  0.331  0.299  0.012 -0.299
  0.007  0.299  0.331 -0.012 -0.299
 -0.000  0.012 -0.012  0.087 -0.000
  0.014 -0.299 -0.299 -0.000  0.331
atomic mag. moment =     3.658757
N of occupied +U levels =   11.988869
 --- exit write_ns ---
 --- in v_hubbard ---
Hubbard energies (dc, U, total)    9.4620   9.6044   0.1425
 -------

     total cpu time spent up to now is      120.5 secs

     total energy              =    -558.85769122 Ry
     Harris-Foulkes estimate   =    -558.85769122 Ry
     estimated scf accuracy    <          2.3E-09 Ry

     total magnetization       =    -0.00 Bohr mag/cell
     absolute magnetization    =     7.54 Bohr mag/cell

     iteration # 13     ecut=   360.00 Ry     beta=0.30
     Davidson diagonalization with overlap
     ethr =  5.31E-12,  avg # of iterations =  2.0
 --- enter write_ns ---
 LDA+U parameters:
U(  1) =   4.3000   J(  1) =   0.0000   B(  1) =   0.0000
U(  2) =   4.3000   J(  2) =   0.0000   B(  2) =   0.0000
atom    1   Tr[ns(na)] (up, down, total) =   1.16784  4.82659  5.99444
   spin  1
    eigenvalues: 
  0.027  0.027  0.092  0.092  0.930
    eigenvectors:
  0.036  0.042  0.362  0.560  0.000
  0.586  0.029  0.051  0.001  0.333
  0.056  0.559  0.007  0.045  0.333
  0.042  0.036  0.560  0.362  0.000
  0.280  0.335  0.020  0.032  0.333
    occupations:
  0.087  0.007  0.007 -0.000  0.014
  0.007  0.331  0.299  0.012 -0.299
  0.007  0.299  0.331 -0.012 -0.299
 -0.000  0.012 -0.012  0.087 -0.000
  0.014 -0.299 -0.299 -0.000  0.331
   spin  2
    eigenvalues: 
  0.951  0.959  0.959  0.978  0.978
    eigenvectors:
  0.000  0.047  0.068  0.801  0.085
  0.333  0.070  0.520  0.042  0.034
  0.333  0.573  0.017  0.003  0.073
  0.000  0.068  0.047  0.085  0.801
  0.333  0.242  0.348  0.069  0.007
    occupations:
  0.976  0.002  0.002 -0.000  0.005
  0.002  0.958 -0.004  0.004  0.004
  0.002 -0.004  0.958 -0.004  0.004
 -0.000  0.004 -0.004  0.976 -0.000
  0.005  0.004  0.004 -0.000  0.958
atomic mag. moment =    -3.658751
atom    2   Tr[ns(na)] (up, down, total) =   4.82659  1.16784  5.99444
   spin  1
    eigenvalues: 
  0.951  0.959  0.959  0.978  0.978
    eigenvectors:
  0.000  0.048  0.067  0.885  0.000
  0.333  0.068  0.522  0.019  0.057
  0.333  0.572  0.018  0.019  0.057
  0.000  0.067  0.048  0.000  0.885
  0.333  0.245  0.345  0.076  0.000
    occupations:
  0.976  0.002  0.002 -0.000  0.005
  0.002  0.958 -0.004  0.004  0.004
  0.002 -0.004  0.958 -0.004  0.004
 -0.000  0.004 -0.004  0.976 -0.000
  0.005  0.004  0.004 -0.000  0.958
   spin  2
    eigenvalues: 
  0.027  0.027  0.092  0.092  0.930
    eigenvectors:
  0.078  0.000  0.732  0.190  0.000
  0.154  0.460  0.037  0.015  0.333
  0.153  0.462  0.000  0.052  0.333
  0.000  0.078  0.190  0.732  0.000
  0.615  0.000  0.041  0.011  0.333
    occupations:
  0.087  0.007  0.007 -0.000  0.014
  0.007  0.331  0.299  0.012 -0.299
  0.007  0.299  0.331 -0.012 -0.299
 -0.000  0.012 -0.012  0.087 -0.000
  0.014 -0.299 -0.299 -0.000  0.331
atomic mag. moment =     3.658751
N of occupied +U levels =   11.988877
 --- exit write_ns ---
 --- in v_hubbard ---
Hubbard energies (dc, U, total)    9.4620   9.6045   0.1425
 -------

     total cpu time spent up to now is      129.2 secs

     total energy              =    -558.85769122 Ry
     Harris-Foulkes estimate   =    -558.85769122 Ry
     estimated scf accuracy    <          5.1E-10 Ry

     total magnetization       =     0.00 Bohr mag/cell
     absolute magnetization    =     7.54 Bohr mag/cell

     iteration # 14     ecut=   360.00 Ry     beta=0.30
     Davidson diagonalization with overlap
     ethr =  1.17E-12,  avg # of iterations =  2.0
 --- enter write_ns ---
 LDA+U parameters:
U(  1) =   4.3000   J(  1) =   0.0000   B(  1) =   0.0000
U(  2) =   4.3000   J(  2) =   0.0000   B(  2) =   0.0000
atom    1   Tr[ns(na)] (up, down, total) =   1.16784  4.82660  5.99444
   spin  1
    eigenvalues: 
  0.027  0.027  0.092  0.092  0.930
    eigenvectors:
  0.001  0.077  0.771  0.151  0.000
  0.388  0.227  0.034  0.018  0.333
  0.524  0.091  0.001  0.051  0.333
  0.077  0.001  0.151  0.771  0.000
  0.010  0.604  0.043  0.009  0.333
    occupations:
  0.087  0.007  0.007 -0.000  0.014
  0.007  0.331  0.299  0.012 -0.299
  0.007  0.299  0.331 -0.012 -0.299
 -0.000  0.012 -0.012  0.087 -0.000
  0.014 -0.299 -0.299 -0.000  0.331
   spin  2
    eigenvalues: 
  0.951  0.959  0.959  0.978  0.978
    eigenvectors:
  0.000  0.040  0.074  0.792  0.094
  0.333  0.095  0.496  0.043  0.033
  0.333  0.583  0.007  0.003  0.074
  0.000  0.074  0.040  0.094  0.792
  0.333  0.208  0.382  0.068  0.008
    occupations:
  0.976  0.002  0.002 -0.000  0.005
  0.002  0.958 -0.004  0.004  0.004
  0.002 -0.004  0.958 -0.004  0.004
 -0.000  0.004 -0.004  0.976 -0.000
  0.005  0.004  0.004 -0.000  0.958
atomic mag. moment =    -3.658751
atom    2   Tr[ns(na)] (up, down, total) =   4.82660  1.16784  5.99444
   spin  1
    eigenvalues: 
  0.951  0.959  0.959  0.978  0.978
    eigenvectors:
  0.000  0.056  0.058  0.875  0.011
  0.333  0.043  0.548  0.027  0.050
  0.333  0.554  0.037  0.012  0.064
  0.000  0.058  0.056  0.011  0.875
  0.333  0.289  0.301  0.075  0.001
    occupations:
  0.976  0.002  0.002 -0.000  0.005
  0.002  0.958 -0.004  0.004  0.004
  0.002 -0.004  0.958 -0.004  0.004
 -0.000  0.004 -0.004  0.976 -0.000
  0.005  0.004  0.004 -0.000  0.958
   spin  2
    eigenvalues: 
  0.027  0.027  0.092  0.092  0.930
    eigenvectors:
  0.026  0.052  0.418  0.504  0.000
  0.610  0.005  0.050  0.002  0.333
  0.109  0.506  0.005  0.047  0.333
  0.052  0.026  0.504  0.418  0.000
  0.203  0.411  0.024  0.028  0.333
    occupations:
  0.087  0.007  0.007 -0.000  0.014
  0.007  0.331  0.299  0.012 -0.299
  0.007  0.299  0.331 -0.012 -0.299
 -0.000  0.012 -0.012  0.087 -0.000
  0.014 -0.299 -0.299 -0.000  0.331
atomic mag. moment =     3.658751
N of occupied +U levels =   11.988881
 --- exit write_ns ---
 --- in v_hubbard ---
Hubbard energies (dc, U, total)    9.4620   9.6045   0.1425
 -------
 
     Magnetic moment per site:
     atom:    1    charge:    1.0981    magn:   -0.3464    constr:    0.0000
     atom:    2    charge:    1.0981    magn:    0.3464    constr:    0.0000
     atom:    3    charge:    0.3856    magn:    0.0000    constr:    0.0000
     atom:    4    charge:    0.3856    magn:    0.0000    constr:    0.0000

     total cpu time spent up to now is      139.0 secs

     End of self-consistent calculation

 ------ SPIN UP ------------


          k = 0.0065 0.0065 0.0065 ( 31692 PWs)   bands (ev):

   -75.4273 -70.7027 -42.4332 -42.4332 -40.9391 -37.4303 -37.4303 -37.0708
    -5.5859  -3.6337   6.2754   6.2754   6.4659   7.8717   7.8717  10.4869
    10.4869  10.5125  11.1637  11.1637  11.6386  12.8340  14.6924  16.2978
    16.2978  17.5890  17.5890  17.8050  22.7990  22.7990  27.1009  29.2286

     occupation numbers 
     1.0000   1.0000   1.0000   1.0000   1.0000   1.0000   1.0000   1.0000
     1.0000   1.0000   1.0000   1.0000   1.0000   1.0000   1.0000   1.0000
     1.0000   1.0000   1.0000   1.0000   1.0000   1.0000   0.0000   0.0000
     0.0000   0.0000   0.0000   0.0000   0.0000   0.0000   0.0000   0.0000

          k =-0.0013-0.0013 0.0348 ( 31705 PWs)   bands (ev):

   -75.4271 -70.7025 -42.4353 -42.4337 -40.9387 -37.4335 -37.4312 -37.0707
    -5.3510  -3.7980   6.3469   6.4494   7.0591   7.7545   7.7793   9.1527
    10.4363  10.5208  10.8096  11.0198  11.5758  12.6780  15.7828  16.2257
    16.2296  17.2345  17.6279  19.3155  21.9539  23.7636  26.9389  27.4318

     occupation numbers 
     1.0000   1.0000   1.0000   1.0000   1.0000   1.0000   1.0000   1.0000
     1.0000   1.0000   1.0000   1.0000   1.0000   1.0000   1.0000   1.0000
     1.0000   1.0000   1.0000   1.0000   1.0000   1.0000   0.0000   0.0000
     0.0000   0.0000   0.0000   0.0000   0.0000   0.0000   0.0000   0.0000

          k =-0.0090-0.0090 0.0632 ( 31716 PWs)   bands (ev):

   -75.4268 -70.7021 -42.4396 -42.4347 -40.9378 -37.4398 -37.4328 -37.0704
    -4.8645  -4.0824   6.4958   6.7591   7.3223   7.7203   8.1207   8.5226
     9.5463   9.7088  10.2450  11.2682  11.3670  12.4001  16.1482  16.1877
    16.4316  17.6911  18.7147  20.7241  21.4150  25.1428  25.5358  27.3682

     occupation numbers 
     1.0000   1.0000   1.0000   1.0000   1.0000   1.0000   1.0000   1.0000
     1.0000   1.0000   1.0000   1.0000   1.0000   1.0000   1.0000   1.0000
     1.0000   1.0000   1.0000   1.0000   1.0000   1.0000   0.0000   0.0000
     0.0000   0.0000   0.0000   0.0000   0.0000   0.0000   0.0000   0.0000

          k = 0.0297 0.0297-0.0787 ( 31706 PWs)   bands (ev):

   -75.4267 -70.7020 -42.4417 -42.4352 -40.9373 -37.4429 -37.4335 -37.0702
    -4.4746  -4.3569   6.5569   6.8513   7.3622   7.9354   8.0080   8.7983
     9.1377   9.2948   9.5299  11.4726  11.4813  12.2669  16.0163  16.1454
    16.9070  17.7457  19.3200  20.0894  23.0261  23.7261  26.3719  27.0453

     occupation numbers 
     1.0000   1.0000   1.0000   1.0000   1.0000   1.0000   1.0000   1.0000
     1.0000   1.0000   1.0000   1.0000   1.0000   1.0000   1.0000   1.0000
     1.0000   1.0000   1.0000   1.0000   1.0000   1.0000   0.0000   0.0000
     0.0000   0.0000   0.0000   0.0000   0.0000   0.0000   0.0000   0.0000

          k = 0.0219 0.0219-0.0503 ( 31680 PWs)   bands (ev):

   -75.4268 -70.7021 -42.4396 -42.4347 -40.9378 -37.4398 -37.4327 -37.0702
    -4.9556  -3.9916   6.7368   6.8021   7.2430   7.5367   7.7452   8.9855
     9.2422   9.5590  10.3062  11.5045  11.6164  12.5437  15.9541  16.1741
    16.6903  17.6636  18.2125  20.4760  21.3974  24.8506  25.0682  27.6275

     occupation numbers 
     1.0000   1.0000   1.0000   1.0000   1.0000   1.0000   1.0000   1.0000
     1.0000   1.0000   1.0000   1.0000   1.0000   1.0000   1.0000   1.0000
     1.0000   1.0000   1.0000   1.0000   1.0000   1.0000   0.0000   0.0000
     0.0000   0.0000   0.0000   0.0000   0.0000   0.0000   0.0000   0.0000

          k = 0.0142 0.0142-0.0219 ( 31714 PWs)   bands (ev):

   -75.4271 -70.7025 -42.4353 -42.4337 -40.9387 -37.4335 -37.4311 -37.0705
    -5.4209  -3.7125   6.4214   6.5135   6.6955   7.6736   7.7888   9.6335
    10.1553  10.2848  10.6665  11.3724  11.9668  12.8303  15.6338  16.1359
    16.2767  17.0944  17.5549  19.2669  21.6607  23.4355  26.6517  27.4238

     occupation numbers 
     1.0000   1.0000   1.0000   1.0000   1.0000   1.0000   1.0000   1.0000
     1.0000   1.0000   1.0000   1.0000   1.0000   1.0000   1.0000   1.0000
     1.0000   1.0000   1.0000   1.0000   1.0000   1.0000   0.0000   0.0000
     0.0000   0.0000   0.0000   0.0000   0.0000   0.0000   0.0000   0.0000

          k =-0.0090 0.0271 0.0271 ( 31683 PWs)   bands (ev):

   -75.4271 -70.7025 -42.4353 -42.4338 -40.9387 -37.4335 -37.4311 -37.0708
    -5.2790  -3.8824   6.3938   6.5114   7.1660   7.6065   7.8385   9.2586
     9.6971  10.3577  10.7371  11.6969  11.7484  12.5389  15.8328  16.3107
    16.3436  17.1744  17.3529  19.3623  22.3094  23.9626  25.8258  27.6394

     occupation numbers 
     1.0000   1.0000   1.0000   1.0000   1.0000   1.0000   1.0000   1.0000
     1.0000   1.0000   1.0000   1.0000   1.0000   1.0000   1.0000   1.0000
     1.0000   1.0000   1.0000   1.0000   1.0000   1.0000   0.0000   0.0000
     0.0000   0.0000   0.0000   0.0000   0.0000   0.0000   0.0000   0.0000

          k =-0.0168 0.0194 0.0555 ( 31669 PWs)   bands (ev):

   -75.4269 -70.7022 -42.4382 -42.4349 -40.9382 -37.4375 -37.4329 -37.0705
    -4.9188  -4.0761   6.4092   6.7652   7.1000   7.6421   8.1659   8.4777
     9.5090  10.0546  10.6673  11.1224  11.7528  12.3646  16.1005  16.2163
    16.5879  17.4014  18.3235  20.5166  21.7761  24.1988  24.8031  27.7888

     occupation numbers 
     1.0000   1.0000   1.0000   1.0000   1.0000   1.0000   1.0000   1.0000
     1.0000   1.0000   1.0000   1.0000   1.0000   1.0000   1.0000   1.0000
     1.0000   1.0000   1.0000   1.0000   1.0000   1.0000   0.0000   0.0000
     0.0000   0.0000   0.0000   0.0000   0.0000   0.0000   0.0000   0.0000

          k = 0.0219 0.0581-0.0865 ( 31684 PWs)   bands (ev):

   -75.4267 -70.7020 -42.4407 -42.4364 -40.9376 -37.4411 -37.4350 -37.0701
    -4.5062  -4.2977   6.4041   6.7974   7.1533   7.6133   8.1755   8.7196
     9.1865   9.5324  10.2260  11.3056  11.3697  12.2101  16.1379  16.1852
    16.9505  17.5866  19.7179  20.6941  22.2111  22.9709  25.1852  27.2119

     occupation numbers 
     1.0000   1.0000   1.0000   1.0000   1.0000   1.0000   1.0000   1.0000
     1.0000   1.0000   1.0000   1.0000   1.0000   1.0000   1.0000   1.0000
     1.0000   1.0000   1.0000   1.0000   1.0000   1.0000   0.0000   0.0000
     0.0000   0.0000   0.0000   0.0000   0.0000   0.0000   0.0000   0.0000

          k = 0.0142 0.0503-0.0581 ( 31665 PWs)   bands (ev):

   -75.4267 -70.7020 -42.4406 -42.4364 -40.9375 -37.4413 -37.4349 -37.0699
    -4.6425  -4.1735   6.4287   6.9241   7.4475   7.5942   7.9208   8.5546
     9.0571   9.7317  10.0886  11.0545  11.7125  12.2950  16.0249  16.1336
    17.1635  17.5182  19.3551  20.4937  22.2427  23.6424  25.4113  25.9233

     occupation numbers 
     1.0000   1.0000   1.0000   1.0000   1.0000   1.0000   1.0000   1.0000
     1.0000   1.0000   1.0000   1.0000   1.0000   1.0000   1.0000   1.0000
     1.0000   1.0000   1.0000   1.0000   1.0000   1.0000   0.0000   0.0000
     0.0000   0.0000   0.0000   0.0000   0.0000   0.0000   0.0000   0.0000

          k = 0.0065 0.0426-0.0297 ( 31670 PWs)   bands (ev):

   -75.4269 -70.7022 -42.4381 -42.4349 -40.9380 -37.4376 -37.4328 -37.0703
    -5.0754  -3.9206   6.5920   6.7950   7.1972   7.5664   7.6687   8.7696
     9.4801  10.2124  10.5562  10.9804  11.8618  12.5983  16.0660  16.1342
    16.7694  17.2237  18.0121  20.7165  21.1303  24.3156  25.1529  27.2871

     occupation numbers 
     1.0000   1.0000   1.0000   1.0000   1.0000   1.0000   1.0000   1.0000
     1.0000   1.0000   1.0000   1.0000   1.0000   1.0000   1.0000   1.0000
     1.0000   1.0000   1.0000   1.0000   1.0000   1.0000   0.0000   0.0000
     0.0000   0.0000   0.0000   0.0000   0.0000   0.0000   0.0000   0.0000

          k =-0.0245 0.0478 0.0478 ( 31684 PWs)   bands (ev):

   -75.4268 -70.7022 -42.4397 -42.4349 -40.9382 -37.4394 -37.4326 -37.0702
    -4.7420  -4.1756   6.0374   6.9596   6.9620   7.7378   8.3477   8.5630
     9.0996   9.6026  10.8448  11.6772  11.9078  12.1892  15.9146  16.3849
    16.9346  17.5731  18.0631  20.2500  22.3514  22.8140  25.4743  27.3585

     occupation numbers 
     1.0000   1.0000   1.0000   1.0000   1.0000   1.0000   1.0000   1.0000
     1.0000   1.0000   1.0000   1.0000   1.0000   1.0000   1.0000   1.0000
     1.0000   1.0000   1.0000   1.0000   1.0000   1.0000   0.0000   0.0000
     0.0000   0.0000   0.0000   0.0000   0.0000   0.0000   0.0000   0.0000

          k = 0.0142 0.0865-0.0942 ( 31673 PWs)   bands (ev):

   -75.4267 -70.7020 -42.4408 -42.4365 -40.9379 -37.4408 -37.4350 -37.0698
    -4.5155  -4.2585   5.8735   7.0528   7.2083   7.5598   8.1030   8.4619
     9.2549   9.5357  10.7147  11.4949  11.7242  12.0479  16.0982  16.2381
    17.1214  17.4875  19.6277  20.5109  21.7019  22.5294  24.9158  27.1820

     occupation numbers 
     1.0000   1.0000   1.0000   1.0000   1.0000   1.0000   1.0000   1.0000
     1.0000   1.0000   1.0000   1.0000   1.0000   1.0000   1.0000   1.0000
     1.0000   1.0000   1.0000   1.0000   1.0000   1.0000   0.0000   0.0000
     0.0000   0.0000   0.0000   0.0000   0.0000   0.0000   0.0000   0.0000

          k = 0.0065 0.0787-0.0658 ( 31670 PWs)   bands (ev):

   -75.4266 -70.7019 -42.4393 -42.4392 -40.9375 -37.4392 -37.4388 -37.0698
    -4.3647  -4.3615   6.3217   6.9435   7.2130   7.5318   7.7719   8.7700
     9.2449   9.6750  10.0033  11.0885  11.7753  12.0119  16.0962  16.1750
    17.4026  17.4323  20.5113  20.9980  21.6190  22.7651  24.5529  26.2931

     occupation numbers 
     1.0000   1.0000   1.0000   1.0000   1.0000   1.0000   1.0000   1.0000
     1.0000   1.0000   1.0000   1.0000   1.0000   1.0000   1.0000   1.0000
     1.0000   1.0000   1.0000   1.0000   1.0000   1.0000   0.0000   0.0000
     0.0000   0.0000   0.0000   0.0000   0.0000   0.0000   0.0000   0.0000

          k =-0.0013 0.0710-0.0374 ( 31691 PWs)   bands (ev):

   -75.4267 -70.7020 -42.4406 -42.4364 -40.9374 -37.4413 -37.4350 -37.0701
    -4.6060  -4.2159   6.5812   6.8893   7.3368   7.5723   8.1776   8.6357
     8.8331   9.6748  10.0701  11.0299  11.5547  12.3162  16.0554  16.1550
    17.0280  17.5770  19.4882  20.5024  22.6050  23.9481  25.0532  25.8676

     occupation numbers 
     1.0000   1.0000   1.0000   1.0000   1.0000   1.0000   1.0000   1.0000
     1.0000   1.0000   1.0000   1.0000   1.0000   1.0000   1.0000   1.0000
     1.0000   1.0000   1.0000   1.0000   1.0000   1.0000   0.0000   0.0000
     0.0000   0.0000   0.0000   0.0000   0.0000   0.0000   0.0000   0.0000

          k = 0.0529-0.0555-0.0555 ( 31680 PWs)   bands (ev):

   -75.4267 -70.7020 -42.4419 -42.4354 -40.9380 -37.4423 -37.4333 -37.0697
    -4.5294  -4.2399   5.5657   7.0727   7.5057   7.9245   8.0015   8.4532
     8.7264   9.5584  11.1497  11.6328  11.7433  11.9114  15.9293  16.3786
    17.0752  17.7598  18.8407  20.1742  21.8220  22.6589  25.9264  27.1483

     occupation numbers 
     1.0000   1.0000   1.0000   1.0000   1.0000   1.0000   1.0000   1.0000
     1.0000   1.0000   1.0000   1.0000   1.0000   1.0000   1.0000   1.0000
     1.0000   1.0000   1.0000   1.0000   1.0000   1.0000   0.0000   0.0000
     0.0000   0.0000   0.0000   0.0000   0.0000   0.0000   0.0000   0.0000

          k = 0.0452-0.0632-0.0271 ( 31661 PWs)   bands (ev):

   -75.4267 -70.7020 -42.4407 -42.4365 -40.9377 -37.4410 -37.4349 -37.0698
    -4.6050  -4.1874   6.0633   7.0180   7.3398   7.7128   7.9238   8.3438
     9.3106   9.4733  10.5224  11.3979  11.7367  12.1515  16.0361  16.1844
    17.2429  17.4418  19.2800  20.5609  22.3107  22.6483  24.8356  26.8486

     occupation numbers 
     1.0000   1.0000   1.0000   1.0000   1.0000   1.0000   1.0000   1.0000
     1.0000   1.0000   1.0000   1.0000   1.0000   1.0000   1.0000   1.0000
     1.0000   1.0000   1.0000   1.0000   1.0000   1.0000   0.0000   0.0000
     0.0000   0.0000   0.0000   0.0000   0.0000   0.0000   0.0000   0.0000

          k = 0.0374-0.0348-0.0348 ( 31668 PWs)   bands (ev):

   -75.4268 -70.7022 -42.4396 -42.4348 -40.9380 -37.4396 -37.4326 -37.0701
    -4.9088  -4.0240   6.4450   6.8279   7.1307   7.6809   7.7570   8.8604
     9.2743   9.4703  10.5696  11.6955  11.9231  12.4311  15.8208  16.2714
    17.0374  17.6050  17.7394  20.4299  21.5911  23.8092  25.0715  27.7594

     occupation numbers 
     1.0000   1.0000   1.0000   1.0000   1.0000   1.0000   1.0000   1.0000
     1.0000   1.0000   1.0000   1.0000   1.0000   1.0000   1.0000   1.0000
     1.0000   1.0000   1.0000   1.0000   1.0000   1.0000   0.0000   0.0000
     0.0000   0.0000   0.0000   0.0000   0.0000   0.0000   0.0000   0.0000

          k = 0.0194 0.0194 0.0194 ( 31605 PWs)   bands (ev):

   -75.4273 -70.7027 -42.4332 -42.4332 -40.9390 -37.4304 -37.4304 -37.0714
    -5.3535  -3.9368   6.3878   6.3878   7.0879   7.9138   7.9138   9.8906
     9.8906  10.2863  10.6619  11.5916  11.5916  12.2880  15.8368  16.2440
    16.2440  17.3875  17.3875  18.2182  23.8195  23.8195  27.8011  28.6757

     occupation numbers 
     1.0000   1.0000   1.0000   1.0000   1.0000   1.0000   1.0000   1.0000
     1.0000   1.0000   1.0000   1.0000   1.0000   1.0000   1.0000   1.0000
     1.0000   1.0000   1.0000   1.0000   1.0000   1.0000   0.0000   0.0000
     0.0000   0.0000   0.0000   0.0000   0.0000   0.0000   0.0000   0.0000

          k = 0.0116 0.0116 0.0478 ( 31691 PWs)   bands (ev):

   -75.4271 -70.7025 -42.4354 -42.4336 -40.9386 -37.4334 -37.4313 -37.0713
    -5.0852  -4.1057   6.2849   6.5757   7.7044   7.7525   7.8462   8.7757
     9.9983  10.3423  10.6118  11.2625  11.4220  12.2230  16.1156  16.2292
    16.2910  17.5239  17.7669  19.2638  22.8674  24.9365  26.2357  27.5045

     occupation numbers 
     1.0000   1.0000   1.0000   1.0000   1.0000   1.0000   1.0000   1.0000
     1.0000   1.0000   1.0000   1.0000   1.0000   1.0000   1.0000   1.0000
     1.0000   1.0000   1.0000   1.0000   1.0000   1.0000   0.0000   0.0000
     0.0000   0.0000   0.0000   0.0000   0.0000   0.0000   0.0000   0.0000

          k = 0.0503 0.0503-0.0942 ( 31710 PWs)   bands (ev):

   -75.4268 -70.7022 -42.4397 -42.4347 -40.9380 -37.4395 -37.4328 -37.0705
    -4.6627  -4.2684   6.1134   6.8800   7.1402   7.6936   8.2405   9.0115
     9.4579   9.5250  10.6085  11.2651  11.2806  12.1159  16.2219  16.2882
    16.3987  17.6672  19.2294  20.6112  21.2893  24.1256  26.3038  27.0011

     occupation numbers 
     1.0000   1.0000   1.0000   1.0000   1.0000   1.0000   1.0000   1.0000
     1.0000   1.0000   1.0000   1.0000   1.0000   1.0000   1.0000   1.0000
     1.0000   1.0000   1.0000   1.0000   1.0000   1.0000   0.0000   0.0000
     0.0000   0.0000   0.0000   0.0000   0.0000   0.0000   0.0000   0.0000

          k = 0.0426 0.0426-0.0658 ( 31682 PWs)   bands (ev):

   -75.4267 -70.7020 -42.4418 -42.4353 -40.9376 -37.4426 -37.4334 -37.0699
    -4.5125  -4.2878   5.9799   6.9529   7.3848   7.9288   8.1357   8.4981
     8.9386   9.4592  10.4662  11.5196  11.5602  12.1206  15.9697  16.2617
    16.9596  17.7523  19.2679  20.0736  22.2831  22.9313  26.1139  27.1992

     occupation numbers 
     1.0000   1.0000   1.0000   1.0000   1.0000   1.0000   1.0000   1.0000
     1.0000   1.0000   1.0000   1.0000   1.0000   1.0000   1.0000   1.0000
     1.0000   1.0000   1.0000   1.0000   1.0000   1.0000   0.0000   0.0000
     0.0000   0.0000   0.0000   0.0000   0.0000   0.0000   0.0000   0.0000

          k = 0.0039 0.0400 0.0400 ( 31697 PWs)   bands (ev):

   -75.4271 -70.7025 -42.4353 -42.4337 -40.9387 -37.4335 -37.4312 -37.0714
    -4.9578  -4.2446   6.3530   6.6429   7.3884   7.8597   8.1613   8.8388
     9.4125  10.0499  10.9268  11.2349  11.7552  12.1065  16.0894  16.3476
    16.6206  17.2608  17.6285  19.2186  23.6452  24.8580  25.0663  28.0474

     occupation numbers 
     1.0000   1.0000   1.0000   1.0000   1.0000   1.0000   1.0000   1.0000
     1.0000   1.0000   1.0000   1.0000   1.0000   1.0000   1.0000   1.0000
     1.0000   1.0000   1.0000   1.0000   1.0000   1.0000   0.0000   0.0000
     0.0000   0.0000   0.0000   0.0000   0.0000   0.0000   0.0000   0.0000

          k = 0.0426 0.0787-0.1020 ( 31701 PWs)   bands (ev):

   -75.4269 -70.7023 -42.4382 -42.4349 -40.9383 -37.4373 -37.4329 -37.0707
    -4.6505  -4.3424   6.2083   6.8983   6.9694   7.5459   8.2667   8.9939
     9.3221  10.1669  10.6094  10.8113  11.8806  12.0721  16.2233  16.3057
    16.5487  17.3454  19.0576  19.9586  22.4106  23.1972  25.9513  27.5646

     occupation numbers 
     1.0000   1.0000   1.0000   1.0000   1.0000   1.0000   1.0000   1.0000
     1.0000   1.0000   1.0000   1.0000   1.0000   1.0000   1.0000   1.0000
     1.0000   1.0000   1.0000   1.0000   1.0000   1.0000   0.0000   0.0000
     0.0000   0.0000   0.0000   0.0000   0.0000   0.0000   0.0000   0.0000

          k = 0.0348 0.0710-0.0736 ( 31681 PWs)   bands (ev):

   -75.4267 -70.7020 -42.4408 -42.4364 -40.9378 -37.4408 -37.4350 -37.0699
    -4.4165  -4.3630   6.0320   6.8410   7.1620   7.5822   8.1204   8.6705
     9.4308   9.5286  10.4771  11.2983  11.6564  12.0619  16.1637  16.2287
    16.9845  17.5548  20.1586  20.5994  21.2945  22.3809  26.0135  26.5082

     occupation numbers 
     1.0000   1.0000   1.0000   1.0000   1.0000   1.0000   1.0000   1.0000
     1.0000   1.0000   1.0000   1.0000   1.0000   1.0000   1.0000   1.0000
     1.0000   1.0000   1.0000   1.0000   1.0000   1.0000   0.0000   0.0000
     0.0000   0.0000   0.0000   0.0000   0.0000   0.0000   0.0000   0.0000

          k = 0.0813-0.0632-0.0632 ( 31686 PWs)   bands (ev):

   -75.4268 -70.7022 -42.4397 -42.4348 -40.9382 -37.4393 -37.4327 -37.0704
    -4.5100  -4.4062   5.9176   6.9594   6.9921   7.6951   8.3511   8.9863
     9.2100   9.5306  10.8963  11.4907  11.5793  11.9192  16.1303  16.3871
    16.5994  17.6087  19.2383  19.8115  21.9745  23.1813  26.0868  27.5240

     occupation numbers 
     1.0000   1.0000   1.0000   1.0000   1.0000   1.0000   1.0000   1.0000
     1.0000   1.0000   1.0000   1.0000   1.0000   1.0000   1.0000   1.0000
     1.0000   1.0000   1.0000   1.0000   1.0000   1.0000   0.0000   0.0000
     0.0000   0.0000   0.0000   0.0000   0.0000   0.0000   0.0000   0.0000

          k = 0.0323 0.0323 0.0323 ( 31668 PWs)   bands (ev):

   -75.4273 -70.7027 -42.4331 -42.4331 -40.9389 -37.4305 -37.4305 -37.0721
    -4.9361  -4.4205   6.5118   6.5118   7.9776   7.9776   8.1198   9.4526
     9.4526   9.4759  10.0873  11.7984  11.8285  11.8285  16.1709  16.1709
    17.1429  17.2462  17.2462  18.1389  25.4700  25.4700  27.3299  27.3299

     occupation numbers 
     1.0000   1.0000   1.0000   1.0000   1.0000   1.0000   1.0000   1.0000
     1.0000   1.0000   1.0000   1.0000   1.0000   1.0000   1.0000   1.0000
     1.0000   1.0000   1.0000   1.0000   1.0000   1.0000   0.0000   0.0000
     0.0000   0.0000   0.0000   0.0000   0.0000   0.0000   0.0000   0.0000

          k = 0.0710 0.0710-0.1097 ( 31699 PWs)   bands (ev):

   -75.4271 -70.7025 -42.4353 -42.4337 -40.9387 -37.4335 -37.4313 -37.0716
    -4.6848  -4.5316   6.3110   6.6807   7.5606   7.8032   8.2266   9.2285
     9.5300   9.5427  10.6155  11.3408  11.5794  11.9722  16.2199  16.2789
    16.4694  17.3594  18.5370  18.6661  23.8834  25.0335  26.3221  26.8108

     occupation numbers 
     1.0000   1.0000   1.0000   1.0000   1.0000   1.0000   1.0000   1.0000
     1.0000   1.0000   1.0000   1.0000   1.0000   1.0000   1.0000   1.0000
     1.0000   1.0000   1.0000   1.0000   1.0000   1.0000   0.0000   0.0000
[...]
     0.0000   0.0000   0.0000   0.0000   0.0000   0.0000   0.0000   0.0000

          k = 0.0219 0.0219-0.0503 ( 31680 PWs)   bands (ev):

   -75.4268 -70.7021 -42.4396 -42.4347 -40.9378 -37.4398 -37.4327 -37.0702
    -4.9556  -3.9916   6.7368   6.8021   7.2430   7.5367   7.7452   8.9855
     9.2422   9.5590  10.3062  11.5045  11.6164  12.5437  15.9541  16.1741
    16.6903  17.6636  18.2125  20.4760  21.3974  24.8506  25.0682  27.6275

     occupation numbers 
     1.0000   1.0000   1.0000   1.0000   1.0000   1.0000   1.0000   1.0000
     1.0000   1.0000   1.0000   1.0000   1.0000   1.0000   1.0000   1.0000
     1.0000   1.0000   1.0000   1.0000   1.0000   1.0000   0.0000   0.0000
     0.0000   0.0000   0.0000   0.0000   0.0000   0.0000   0.0000   0.0000

          k = 0.0142 0.0142-0.0219 ( 31714 PWs)   bands (ev):

   -75.4271 -70.7025 -42.4353 -42.4337 -40.9387 -37.4335 -37.4311 -37.0705
    -5.4209  -3.7125   6.4214   6.5135   6.6955   7.6736   7.7888   9.6335
    10.1553  10.2848  10.6665  11.3724  11.9668  12.8303  15.6338  16.1359
    16.2767  17.0944  17.5549  19.2669  21.6607  23.4355  26.6517  27.4238

     occupation numbers 
     1.0000   1.0000   1.0000   1.0000   1.0000   1.0000   1.0000   1.0000
     1.0000   1.0000   1.0000   1.0000   1.0000   1.0000   1.0000   1.0000
     1.0000   1.0000   1.0000   1.0000   1.0000   1.0000   0.0000   0.0000
     0.0000   0.0000   0.0000   0.0000   0.0000   0.0000   0.0000   0.0000

          k =-0.0090 0.0271 0.0271 ( 31683 PWs)   bands (ev):

   -75.4271 -70.7025 -42.4353 -42.4338 -40.9387 -37.4335 -37.4311 -37.0708
    -5.2790  -3.8824   6.3938   6.5114   7.1660   7.6065   7.8385   9.2586
     9.6971  10.3577  10.7371  11.6969  11.7484  12.5389  15.8328  16.3107
    16.3436  17.1744  17.3529  19.3623  22.3094  23.9626  25.8258  27.6394

     occupation numbers 
     1.0000   1.0000   1.0000   1.0000   1.0000   1.0000   1.0000   1.0000
     1.0000   1.0000   1.0000   1.0000   1.0000   1.0000   1.0000   1.0000
     1.0000   1.0000   1.0000   1.0000   1.0000   1.0000   0.0000   0.0000
     0.0000   0.0000   0.0000   0.0000   0.0000   0.0000   0.0000   0.0000

          k =-0.0168 0.0194 0.0555 ( 31669 PWs)   bands (ev):

   -75.4269 -70.7022 -42.4382 -42.4349 -40.9382 -37.4375 -37.4329 -37.0705
    -4.9188  -4.0761   6.4092   6.7652   7.1000   7.6421   8.1659   8.4777
     9.5090  10.0546  10.6673  11.1224  11.7528  12.3646  16.1005  16.2163
    16.5879  17.4014  18.3235  20.5166  21.7761  24.1988  24.8031  27.7888

     occupation numbers 
     1.0000   1.0000   1.0000   1.0000   1.0000   1.0000   1.0000   1.0000
     1.0000   1.0000   1.0000   1.0000   1.0000   1.0000   1.0000   1.0000
     1.0000   1.0000   1.0000   1.0000   1.0000   1.0000   0.0000   0.0000
     0.0000   0.0000   0.0000   0.0000   0.0000   0.0000   0.0000   0.0000

          k = 0.0219 0.0581-0.0865 ( 31684 PWs)   bands (ev):

   -75.4267 -70.7020 -42.4407 -42.4364 -40.9376 -37.4411 -37.4350 -37.0701
    -4.5062  -4.2977   6.4041   6.7974   7.1533   7.6133   8.1755   8.7196
     9.1865   9.5324  10.2260  11.3056  11.3697  12.2101  16.1379  16.1852
    16.9505  17.5866  19.7179  20.6941  22.2111  22.9709  25.1852  27.2119

     occupation numbers 
     1.0000   1.0000   1.0000   1.0000   1.0000   1.0000   1.0000   1.0000
     1.0000   1.0000   1.0000   1.0000   1.0000   1.0000   1.0000   1.0000
     1.0000   1.0000   1.0000   1.0000   1.0000   1.0000   0.0000   0.0000
     0.0000   0.0000   0.0000   0.0000   0.0000   0.0000   0.0000   0.0000

          k = 0.0142 0.0503-0.0581 ( 31665 PWs)   bands (ev):

   -75.4267 -70.7020 -42.4406 -42.4364 -40.9375 -37.4413 -37.4349 -37.0699
    -4.6425  -4.1735   6.4287   6.9241   7.4475   7.5942   7.9208   8.5546
     9.0571   9.7317  10.0886  11.0545  11.7125  12.2950  16.0249  16.1336
    17.1635  17.5182  19.3551  20.4937  22.2427  23.6424  25.4113  25.9233

     occupation numbers 
     1.0000   1.0000   1.0000   1.0000   1.0000   1.0000   1.0000   1.0000
     1.0000   1.0000   1.0000   1.0000   1.0000   1.0000   1.0000   1.0000
     1.0000   1.0000   1.0000   1.0000   1.0000   1.0000   0.0000   0.0000
     0.0000   0.0000   0.0000   0.0000   0.0000   0.0000   0.0000   0.0000

          k = 0.0065 0.0426-0.0297 ( 31670 PWs)   bands (ev):

   -75.4269 -70.7022 -42.4381 -42.4349 -40.9380 -37.4376 -37.4328 -37.0703
    -5.0754  -3.9206   6.5920   6.7950   7.1972   7.5664   7.6687   8.7696
     9.4801  10.2124  10.5562  10.9804  11.8618  12.5983  16.0660  16.1342
    16.7694  17.2237  18.0121  20.7165  21.1303  24.3156  25.1529  27.2871

     occupation numbers 
     1.0000   1.0000   1.0000   1.0000   1.0000   1.0000   1.0000   1.0000
     1.0000   1.0000   1.0000   1.0000   1.0000   1.0000   1.0000   1.0000
     1.0000   1.0000   1.0000   1.0000   1.0000   1.0000   0.0000   0.0000
     0.0000   0.0000   0.0000   0.0000   0.0000   0.0000   0.0000   0.0000

          k =-0.0245 0.0478 0.0478 ( 31684 PWs)   bands (ev):

   -75.4268 -70.7022 -42.4397 -42.4349 -40.9382 -37.4394 -37.4326 -37.0702
    -4.7420  -4.1756   6.0374   6.9596   6.9620   7.7378   8.3477   8.5630
     9.0996   9.6026  10.8448  11.6772  11.9078  12.1892  15.9146  16.3849
    16.9346  17.5731  18.0631  20.2500  22.3514  22.8140  25.4743  27.3585

     occupation numbers 
     1.0000   1.0000   1.0000   1.0000   1.0000   1.0000   1.0000   1.0000
     1.0000   1.0000   1.0000   1.0000   1.0000   1.0000   1.0000   1.0000
     1.0000   1.0000   1.0000   1.0000   1.0000   1.0000   0.0000   0.0000
     0.0000   0.0000   0.0000   0.0000   0.0000   0.0000   0.0000   0.0000

          k = 0.0142 0.0865-0.0942 ( 31673 PWs)   bands (ev):

   -75.4267 -70.7020 -42.4408 -42.4365 -40.9379 -37.4408 -37.4350 -37.0698
    -4.5155  -4.2585   5.8735   7.0528   7.2083   7.5598   8.1030   8.4619
     9.2549   9.5357  10.7147  11.4949  11.7242  12.0479  16.0982  16.2381
    17.1214  17.4875  19.6277  20.5109  21.7019  22.5294  24.9158  27.1820

     occupation numbers 
     1.0000   1.0000   1.0000   1.0000   1.0000   1.0000   1.0000   1.0000
     1.0000   1.0000   1.0000   1.0000   1.0000   1.0000   1.0000   1.0000
     1.0000   1.0000   1.0000   1.0000   1.0000   1.0000   0.0000   0.0000
     0.0000   0.0000   0.0000   0.0000   0.0000   0.0000   0.0000   0.0000

          k = 0.0065 0.0787-0.0658 ( 31670 PWs)   bands (ev):

   -75.4266 -70.7019 -42.4393 -42.4392 -40.9375 -37.4392 -37.4388 -37.0698
    -4.3647  -4.3615   6.3217   6.9435   7.2130   7.5318   7.7719   8.7700
     9.2449   9.6750  10.0033  11.0885  11.7753  12.0119  16.0962  16.1750
    17.4026  17.4323  20.5113  20.9980  21.6190  22.7651  24.5529  26.2931

     occupation numbers 
     1.0000   1.0000   1.0000   1.0000   1.0000   1.0000   1.0000   1.0000
     1.0000   1.0000   1.0000   1.0000   1.0000   1.0000   1.0000   1.0000
     1.0000   1.0000   1.0000   1.0000   1.0000   1.0000   0.0000   0.0000
     0.0000   0.0000   0.0000   0.0000   0.0000   0.0000   0.0000   0.0000

          k =-0.0013 0.0710-0.0374 ( 31691 PWs)   bands (ev):

   -75.4267 -70.7020 -42.4406 -42.4364 -40.9374 -37.4413 -37.4350 -37.0701
    -4.6060  -4.2159   6.5812   6.8893   7.3368   7.5723   8.1776   8.6357
     8.8331   9.6748  10.0701  11.0299  11.5547  12.3162  16.0554  16.1550
    17.0280  17.5770  19.4882  20.5024  22.6050  23.9481  25.0532  25.8676

     occupation numbers 
     1.0000   1.0000   1.0000   1.0000   1.0000   1.0000   1.0000   1.0000
     1.0000   1.0000   1.0000   1.0000   1.0000   1.0000   1.0000   1.0000
     1.0000   1.0000   1.0000   1.0000   1.0000   1.0000   0.0000   0.0000
     0.0000   0.0000   0.0000   0.0000   0.0000   0.0000   0.0000   0.0000

          k = 0.0529-0.0555-0.0555 ( 31680 PWs)   bands (ev):

   -75.4267 -70.7020 -42.4419 -42.4354 -40.9380 -37.4423 -37.4333 -37.0697
    -4.5294  -4.2399   5.5657   7.0727   7.5057   7.9245   8.0015   8.4532
     8.7264   9.5584  11.1497  11.6328  11.7433  11.9114  15.9293  16.3786
    17.0752  17.7598  18.8407  20.1742  21.8220  22.6589  25.9264  27.1483

     occupation numbers 
     1.0000   1.0000   1.0000   1.0000   1.0000   1.0000   1.0000   1.0000
     1.0000   1.0000   1.0000   1.0000   1.0000   1.0000   1.0000   1.0000
     1.0000   1.0000   1.0000   1.0000   1.0000   1.0000   0.0000   0.0000
     0.0000   0.0000   0.0000   0.0000   0.0000   0.0000   0.0000   0.0000

          k = 0.0452-0.0632-0.0271 ( 31661 PWs)   bands (ev):

   -75.4267 -70.7020 -42.4407 -42.4365 -40.9377 -37.4410 -37.4349 -37.0698
    -4.6050  -4.1874   6.0633   7.0180   7.3398   7.7128   7.9238   8.3438
     9.3106   9.4733  10.5224  11.3979  11.7367  12.1515  16.0361  16.1844
    17.2429  17.4418  19.2800  20.5609  22.3107  22.6483  24.8356  26.8486

     occupation numbers 
     1.0000   1.0000   1.0000   1.0000   1.0000   1.0000   1.0000   1.0000
     1.0000   1.0000   1.0000   1.0000   1.0000   1.0000   1.0000   1.0000
     1.0000   1.0000   1.0000   1.0000   1.0000   1.0000   0.0000   0.0000
     0.0000   0.0000   0.0000   0.0000   0.0000   0.0000   0.0000   0.0000

          k = 0.0374-0.0348-0.0348 ( 31668 PWs)   bands (ev):

   -75.4268 -70.7022 -42.4396 -42.4348 -40.9380 -37.4396 -37.4326 -37.0701
    -4.9088  -4.0240   6.4450   6.8279   7.1307   7.6809   7.7570   8.8604
     9.2743   9.4703  10.5696  11.6955  11.9231  12.4311  15.8208  16.2714
    17.0374  17.6050  17.7394  20.4299  21.5911  23.8092  25.0715  27.7594

     occupation numbers 
     1.0000   1.0000   1.0000   1.0000   1.0000   1.0000   1.0000   1.0000
     1.0000   1.0000   1.0000   1.0000   1.0000   1.0000   1.0000   1.0000
     1.0000   1.0000   1.0000   1.0000   1.0000   1.0000   0.0000   0.0000
     0.0000   0.0000   0.0000   0.0000   0.0000   0.0000   0.0000   0.0000

          k = 0.0194 0.0194 0.0194 ( 31605 PWs)   bands (ev):

   -75.4273 -70.7027 -42.4332 -42.4332 -40.9390 -37.4304 -37.4304 -37.0714
    -5.3535  -3.9368   6.3878   6.3878   7.0879   7.9138   7.9138   9.8906
     9.8906  10.2863  10.6619  11.5916  11.5916  12.2880  15.8368  16.2440
    16.2440  17.3875  17.3875  18.2182  23.8195  23.8195  27.8011  28.6757

     occupation numbers 
     1.0000   1.0000   1.0000   1.0000   1.0000   1.0000   1.0000   1.0000
     1.0000   1.0000   1.0000   1.0000   1.0000   1.0000   1.0000   1.0000
     1.0000   1.0000   1.0000   1.0000   1.0000   1.0000   0.0000   0.0000
     0.0000   0.0000   0.0000   0.0000   0.0000   0.0000   0.0000   0.0000

          k = 0.0116 0.0116 0.0478 ( 31691 PWs)   bands (ev):

   -75.4271 -70.7025 -42.4354 -42.4336 -40.9386 -37.4334 -37.4313 -37.0713
    -5.0852  -4.1057   6.2849   6.5757   7.7044   7.7525   7.8462   8.7757
     9.9983  10.3423  10.6118  11.2625  11.4220  12.2230  16.1156  16.2292
    16.2910  17.5239  17.7669  19.2638  22.8674  24.9365  26.2357  27.5045

     occupation numbers 
     1.0000   1.0000   1.0000   1.0000   1.0000   1.0000   1.0000   1.0000
     1.0000   1.0000   1.0000   1.0000   1.0000   1.0000   1.0000   1.0000
     1.0000   1.0000   1.0000   1.0000   1.0000   1.0000   0.0000   0.0000
     0.0000   0.0000   0.0000   0.0000   0.0000   0.0000   0.0000   0.0000

          k = 0.0503 0.0503-0.0942 ( 31710 PWs)   bands (ev):

   -75.4268 -70.7022 -42.4397 -42.4347 -40.9380 -37.4395 -37.4328 -37.0705
    -4.6627  -4.2684   6.1134   6.8800   7.1402   7.6936   8.2405   9.0115
     9.4579   9.5250  10.6085  11.2651  11.2806  12.1159  16.2219  16.2882
    16.3987  17.6672  19.2294  20.6112  21.2893  24.1256  26.3038  27.0011

     occupation numbers 
     1.0000   1.0000   1.0000   1.0000   1.0000   1.0000   1.0000   1.0000
     1.0000   1.0000   1.0000   1.0000   1.0000   1.0000   1.0000   1.0000
     1.0000   1.0000   1.0000   1.0000   1.0000   1.0000   0.0000   0.0000
     0.0000   0.0000   0.0000   0.0000   0.0000   0.0000   0.0000   0.0000

          k = 0.0426 0.0426-0.0658 ( 31682 PWs)   bands (ev):

   -75.4267 -70.7020 -42.4418 -42.4353 -40.9376 -37.4426 -37.4334 -37.0699
    -4.5125  -4.2878   5.9799   6.9529   7.3848   7.9288   8.1357   8.4981
     8.9386   9.4592  10.4662  11.5196  11.5602  12.1206  15.9697  16.2617
    16.9596  17.7523  19.2679  20.0736  22.2831  22.9313  26.1139  27.1992

     occupation numbers 
     1.0000   1.0000   1.0000   1.0000   1.0000   1.0000   1.0000   1.0000
     1.0000   1.0000   1.0000   1.0000   1.0000   1.0000   1.0000   1.0000
     1.0000   1.0000   1.0000   1.0000   1.0000   1.0000   0.0000   0.0000
     0.0000   0.0000   0.0000   0.0000   0.0000   0.0000   0.0000   0.0000

          k = 0.0039 0.0400 0.0400 ( 31697 PWs)   bands (ev):

   -75.4271 -70.7025 -42.4353 -42.4337 -40.9387 -37.4335 -37.4312 -37.0714
    -4.9578  -4.2446   6.3530   6.6429   7.3884   7.8597   8.1613   8.8388
     9.4125  10.0499  10.9268  11.2349  11.7552  12.1065  16.0894  16.3476
    16.6206  17.2608  17.6285  19.2186  23.6452  24.8580  25.0663  28.0474

     occupation numbers 
     1.0000   1.0000   1.0000   1.0000   1.0000   1.0000   1.0000   1.0000
     1.0000   1.0000   1.0000   1.0000   1.0000   1.0000   1.0000   1.0000
     1.0000   1.0000   1.0000   1.0000   1.0000   1.0000   0.0000   0.0000
     0.0000   0.0000   0.0000   0.0000   0.0000   0.0000   0.0000   0.0000

          k = 0.0426 0.0787-0.1020 ( 31701 PWs)   bands (ev):

   -75.4269 -70.7023 -42.4382 -42.4349 -40.9383 -37.4373 -37.4329 -37.0707
    -4.6505  -4.3424   6.2083   6.8983   6.9694   7.5459   8.2667   8.9939
     9.3221  10.1669  10.6094  10.8113  11.8806  12.0721  16.2233  16.3057
    16.5487  17.3454  19.0576  19.9586  22.4106  23.1972  25.9513  27.5646

     occupation numbers 
     1.0000   1.0000   1.0000   1.0000   1.0000   1.0000   1.0000   1.0000
     1.0000   1.0000   1.0000   1.0000   1.0000   1.0000   1.0000   1.0000
     1.0000   1.0000   1.0000   1.0000   1.0000   1.0000   0.0000   0.0000
     0.0000   0.0000   0.0000   0.0000   0.0000   0.0000   0.0000   0.0000

          k = 0.0348 0.0710-0.0736 ( 31681 PWs)   bands (ev):

   -75.4267 -70.7020 -42.4408 -42.4364 -40.9378 -37.4408 -37.4350 -37.0699
    -4.4165  -4.3630   6.0320   6.8410   7.1620   7.5822   8.1204   8.6705
     9.4308   9.5286  10.4771  11.2983  11.6564  12.0619  16.1637  16.2287
    16.9845  17.5548  20.1586  20.5994  21.2945  22.3809  26.0135  26.5082

     occupation numbers 
     1.0000   1.0000   1.0000   1.0000   1.0000   1.0000   1.0000   1.0000
     1.0000   1.0000   1.0000   1.0000   1.0000   1.0000   1.0000   1.0000
     1.0000   1.0000   1.0000   1.0000   1.0000   1.0000   0.0000   0.0000
     0.0000   0.0000   0.0000   0.0000   0.0000   0.0000   0.0000   0.0000

          k = 0.0813-0.0632-0.0632 ( 31686 PWs)   bands (ev):

   -75.4268 -70.7022 -42.4397 -42.4348 -40.9382 -37.4393 -37.4327 -37.0704
    -4.5100  -4.4062   5.9176   6.9594   6.9921   7.6951   8.3511   8.9863
     9.2100   9.5306  10.8963  11.4907  11.5793  11.9192  16.1303  16.3871
    16.5994  17.6087  19.2383  19.8115  21.9745  23.1813  26.0868  27.5240

     occupation numbers 
     1.0000   1.0000   1.0000   1.0000   1.0000   1.0000   1.0000   1.0000
     1.0000   1.0000   1.0000   1.0000   1.0000   1.0000   1.0000   1.0000
     1.0000   1.0000   1.0000   1.0000   1.0000   1.0000   0.0000   0.0000
     0.0000   0.0000   0.0000   0.0000   0.0000   0.0000   0.0000   0.0000

          k = 0.0323 0.0323 0.0323 ( 31668 PWs)   bands (ev):

   -75.4273 -70.7027 -42.4331 -42.4331 -40.9389 -37.4305 -37.4305 -37.0721
    -4.9361  -4.4205   6.5118   6.5118   7.9776   7.9776   8.1198   9.4526
     9.4526   9.4759  10.0873  11.7984  11.8285  11.8285  16.1709  16.1709
    17.1429  17.2462  17.2462  18.1389  25.4700  25.4700  27.3299  27.3299

     occupation numbers 
     1.0000   1.0000   1.0000   1.0000   1.0000   1.0000   1.0000   1.0000
     1.0000   1.0000   1.0000   1.0000   1.0000   1.0000   1.0000   1.0000
     1.0000   1.0000   1.0000   1.0000   1.0000   1.0000   0.0000   0.0000
     0.0000   0.0000   0.0000   0.0000   0.0000   0.0000   0.0000   0.0000

          k = 0.0710 0.0710-0.1097 ( 31699 PWs)   bands (ev):

   -75.4271 -70.7025 -42.4353 -42.4337 -40.9387 -37.4335 -37.4313 -37.0716
    -4.6848  -4.5316   6.3110   6.6807   7.5606   7.8032   8.2266   9.2285
     9.5300   9.5427  10.6155  11.3408  11.5794  11.9722  16.2199  16.2789
    16.4694  17.3594  18.5370  18.6661  23.8834  25.0335  26.3221  26.8108

     occupation numbers 
     1.0000   1.0000   1.0000   1.0000   1.0000   1.0000   1.0000   1.0000
     1.0000   1.0000   1.0000   1.0000   1.0000   1.0000   1.0000   1.0000
     1.0000   1.0000   1.0000   1.0000   1.0000   1.0000   0.0000   0.0000
     0.0000   0.0000   0.0000   0.0000   0.0000   0.0000   0.0000   0.0000

     the spin up/dw Fermi energies are    13.7129   13.7129 ev

!    total energy              =    -558.85769122 Ry
     Harris-Foulkes estimate   =    -558.85769122 Ry
     estimated scf accuracy    <          1.5E-11 Ry

     The total energy is the sum of the following terms:

     one-electron contribution =    -272.46425771 Ry
     hartree contribution      =     160.31056113 Ry
     xc contribution           =     -67.70802865 Ry
     ewald contribution        =    -379.13842027 Ry
     Hubbard energy            =       0.14245427 Ry
     smearing contrib. (-TS)   =       0.00000000 Ry

     total magnetization       =    -0.00 Bohr mag/cell
     absolute magnetization    =     7.54 Bohr mag/cell

     convergence has been achieved in  14 iterations

     Writing output data file pwscf.save
 
     init_run     :      3.84s CPU      4.06s WALL (       1 calls)
     electrons    :    133.98s CPU    134.79s WALL (       1 calls)

     Called by init_run:
     wfcinit      :      3.11s CPU      3.21s WALL (       1 calls)
     potinit      :      0.31s CPU      0.40s WALL (       1 calls)

     Called by electrons:
     c_bands      :    112.60s CPU    113.17s WALL (      14 calls)
     sum_band     :     20.38s CPU     20.49s WALL (      14 calls)
     v_of_rho     :      0.80s CPU      0.86s WALL (      15 calls)
     v_h          :      0.03s CPU      0.03s WALL (      15 calls)
     v_xc         :      0.76s CPU      0.77s WALL (      15 calls)
     mix_rho      :      0.13s CPU      0.14s WALL (      14 calls)

     Called by c_bands:
     init_us_2    :      0.43s CPU      0.44s WALL (    1680 calls)
     cegterg      :    111.66s CPU    112.17s WALL (     784 calls)

     Called by sum_band:

     Called by *egterg:
     h_psi        :    101.03s CPU    101.52s WALL (    2690 calls)
     g_psi        :      0.21s CPU      0.21s WALL (    1850 calls)
     cdiaghg      :      5.08s CPU      5.14s WALL (    2634 calls)
     cegterg:over :      2.65s CPU      2.66s WALL (    1850 calls)
     cegterg:upda :      1.52s CPU      1.52s WALL (    1850 calls)
     cegterg:last :      0.61s CPU      0.61s WALL (     784 calls)

     Called by h_psi:
     h_psi:vloc   :     97.83s CPU     98.29s WALL (    2690 calls)
     h_psi:vnl    :      1.75s CPU      1.75s WALL (    2690 calls)
     add_vuspsi   :      0.72s CPU      0.73s WALL (    2690 calls)
     vhpsi        :      1.00s CPU      1.01s WALL (    2690 calls)

     General routines
     calbec       :      1.90s CPU      1.91s WALL (    6220 calls)
     fft          :      0.47s CPU      0.48s WALL (     312 calls)
     fftw         :    109.89s CPU    110.32s WALL (  152856 calls)
     davcio       :      0.00s CPU      0.07s WALL (      56 calls)
 
     Parallel routines
     fft_scatter  :     23.13s CPU     23.12s WALL (  153168 calls)

     Hubbard U routines
     new_ns       :      0.29s CPU      0.30s WALL (      14 calls)
     vhpsi        :      1.00s CPU      1.01s WALL (    2690 calls)
 
     PWSCF        :  2m22.03s CPU     2m30.04s WALL

 
   This run was terminated on:   9:29:34  25Aug2017            

=------------------------------------------------------------------------------=
   JOB DONE.
=------------------------------------------------------------------------------=
