
     Program PWSCF v.6.7MaX starts on 19Nov2021 at  6:53:48 

     This program is part of the open-source Quantum ESPRESSO suite
     for quantum simulation of materials; please cite
         "P. Giannozzi et al., J. Phys.:Condens. Matter 21 395502 (2009);
         "P. Giannozzi et al., J. Phys.:Condens. Matter 29 465901 (2017);
          URL http://www.quantum-espresso.org", 
     in publications or presentations arising from this work. More details at
     http://www.quantum-espresso.org/quote

     Parallel version (MPI), running on    48 processors

     MPI processes distributed on     1 nodes
     R & G space division:  proc/nbgrp/npool/nimage =      48
     Reading input from scf.in

     Current dimensions of program PWSCF are:
     Max number of different atomic species (ntypx) = 10
     Max number of k-points (npk) =  40000
     Max angular momentum in pseudopotentials (lmaxx) =  3
     Message from routine scan_end:
     No INFO block end statement, possibly corrupted file
     Message from routine scan_end:
     No INFO block end statement, possibly corrupted file
     Message from routine scan_end:
     No INFO block end statement, possibly corrupted file

     WARNING: one or more of the chosen libxc functionals depend
      on external parameters: their correct operation is not guaranteed.

     IMPORTANT: XC functional enforced from input :
     Exchange-correlation= SCAN
                           (   0   0   0   0   0 263 267)
     Any further DFT definition will be discarded
     Please, verify this is what you really want


     Subspace diagonalization in iterative solution of the eigenvalue problem:
     one sub-group per band group will be used
     scalapack distributed-memory algorithm (size of sub-group:  6*  6 procs)

 
     Parallelization info
     --------------------
     sticks:   dense  smooth     PW     G-vecs:    dense   smooth      PW
     Min         336     336     87                32092    32092    4297
     Max         337     337     88                32097    32097    4304
     Sum       16141   16141   4221              1540499  1540499  206437
 


     bravais-lattice index     =            1
     lattice parameter (alat)  =       7.9576  a.u.
     unit-cell volume          =     503.9013 (a.u.)^3
     number of atoms/cell      =            8
     number of atomic types    =            3
     number of electrons       =        46.00 (up:  25.00, down:  21.00)
     number of Kohn-Sham states=           32
     kinetic-energy cutoff     =     800.0000  Ry
     charge density cutoff     =    3200.0000  Ry
     scf convergence threshold =      1.0E-10
     mixing beta               =       0.2000
     number of iterations used =            8  plain     mixing
     Exchange-correlation= SCAN
                           (   0   0   0   0   0 263 267)

     celldm(1)=   7.957595  celldm(2)=   0.000000  celldm(3)=   0.000000
     celldm(4)=   0.000000  celldm(5)=   0.000000  celldm(6)=   0.000000

     crystal axes: (cart. coord. in units of alat)
               a(1) = (   1.000000   0.000000   0.000000 )  
               a(2) = (   0.000000   1.000000   0.000000 )  
               a(3) = (   0.000000   0.000000   1.000000 )  

     reciprocal axes: (cart. coord. in units 2 pi/alat)
               b(1) = (  1.000000  0.000000  0.000000 )  
               b(2) = (  0.000000  1.000000  0.000000 )  
               b(3) = (  0.000000  0.000000  1.000000 )  


     PseudoPot. # 1 for Fe read from file:
     /ascldap/users/jptowns/ferropericlase_spintransition/pseudos/Fe.ccECP.upf
     MD5 check sum: 375ee7e2ce333dc2f1485c86089d969e
     Pseudo is Norm-conserving, Zval = 16.0
     Generated by new atomic code, or converted to UPF format
     Using radial grid of 1160 points,  2 beta functions with: 
                l(1) =   1
                l(2) =   2

     PseudoPot. # 2 for Mg read from file:
     /ascldap/users/jptowns/ferropericlase_spintransition/pseudos/Mg.ccECP.upf
     MD5 check sum: 94218cb30fa6b3f6810c07405bb1118c
     Pseudo is Norm-conserving, Zval =  2.0
     Generated by new atomic code, or converted to UPF format
     Using radial grid of 1140 points,  2 beta functions with: 
                l(1) =   0
                l(2) =   2

     PseudoPot. # 3 for O  read from file:
     /ascldap/users/jptowns/ferropericlase_spintransition/pseudos/O.ccECP.upf
     MD5 check sum: f8511452b848d8673c004e477b4fc277
     Pseudo is Norm-conserving, Zval =  6.0
     Generated by new atomic code, or converted to UPF format
     Using radial grid of 1130 points,  1 beta functions with: 
                l(1) =   0

     atomic species   valence    mass     pseudopotential
        Fe            16.00    55.84500     Fe( 1.00)
        Mg             2.00    24.30500     Mg( 1.00)
        O              6.00    15.99900     O ( 1.00)

     Starting magnetic structure 
     atomic species   magnetization
        Fe           0.833
        Mg           0.000
        O            0.000

     48 Sym. Ops., with inversion, found


                                    s                        frac. trans.

      isym =  1     identity                                     

 cryst.   s( 1) = (     1          0          0      )
                  (     0          1          0      )
                  (     0          0          1      )

 cart.    s( 1) = (  1.0000000  0.0000000  0.0000000 )
                  (  0.0000000  1.0000000  0.0000000 )
                  (  0.0000000  0.0000000  1.0000000 )


      isym =  2     180 deg rotation - cart. axis [0,0,1]        

 cryst.   s( 2) = (    -1          0          0      )
                  (     0         -1          0      )
                  (     0          0          1      )

 cart.    s( 2) = ( -1.0000000  0.0000000  0.0000000 )
                  (  0.0000000 -1.0000000  0.0000000 )
                  (  0.0000000  0.0000000  1.0000000 )


      isym =  3     180 deg rotation - cart. axis [0,1,0]        

 cryst.   s( 3) = (    -1          0          0      )
                  (     0          1          0      )
                  (     0          0         -1      )

 cart.    s( 3) = ( -1.0000000  0.0000000  0.0000000 )
                  (  0.0000000  1.0000000  0.0000000 )
                  (  0.0000000  0.0000000 -1.0000000 )


      isym =  4     180 deg rotation - cart. axis [1,0,0]        

 cryst.   s( 4) = (     1          0          0      )
                  (     0         -1          0      )
                  (     0          0         -1      )

 cart.    s( 4) = (  1.0000000  0.0000000  0.0000000 )
                  (  0.0000000 -1.0000000  0.0000000 )
                  (  0.0000000  0.0000000 -1.0000000 )


      isym =  5     180 deg rotation - cart. axis [1,1,0]        

 cryst.   s( 5) = (     0          1          0      )
                  (     1          0          0      )
                  (     0          0         -1      )

 cart.    s( 5) = (  0.0000000  1.0000000  0.0000000 )
                  (  1.0000000  0.0000000  0.0000000 )
                  (  0.0000000  0.0000000 -1.0000000 )


      isym =  6     180 deg rotation - cart. axis [1,-1,0]       

 cryst.   s( 6) = (     0         -1          0      )
                  (    -1          0          0      )
                  (     0          0         -1      )

 cart.    s( 6) = (  0.0000000 -1.0000000  0.0000000 )
                  ( -1.0000000  0.0000000  0.0000000 )
                  (  0.0000000  0.0000000 -1.0000000 )


      isym =  7      90 deg rotation - cart. axis [0,0,-1]       

 cryst.   s( 7) = (     0         -1          0      )
                  (     1          0          0      )
                  (     0          0          1      )

 cart.    s( 7) = (  0.0000000  1.0000000  0.0000000 )
                  ( -1.0000000  0.0000000  0.0000000 )
                  (  0.0000000  0.0000000  1.0000000 )


      isym =  8      90 deg rotation - cart. axis [0,0,1]        

 cryst.   s( 8) = (     0          1          0      )
                  (    -1          0          0      )
                  (     0          0          1      )

 cart.    s( 8) = (  0.0000000 -1.0000000  0.0000000 )
                  (  1.0000000  0.0000000  0.0000000 )
                  (  0.0000000  0.0000000  1.0000000 )


      isym =  9     180 deg rotation - cart. axis [1,0,1]        

 cryst.   s( 9) = (     0          0          1      )
                  (     0         -1          0      )
                  (     1          0          0      )

 cart.    s( 9) = (  0.0000000  0.0000000  1.0000000 )
                  (  0.0000000 -1.0000000  0.0000000 )
                  (  1.0000000  0.0000000  0.0000000 )


      isym = 10     180 deg rotation - cart. axis [-1,0,1]       

 cryst.   s(10) = (     0          0         -1      )
                  (     0         -1          0      )
                  (    -1          0          0      )

 cart.    s(10) = (  0.0000000  0.0000000 -1.0000000 )
                  (  0.0000000 -1.0000000  0.0000000 )
                  ( -1.0000000  0.0000000  0.0000000 )


      isym = 11      90 deg rotation - cart. axis [0,1,0]        

 cryst.   s(11) = (     0          0         -1      )
                  (     0          1          0      )
                  (     1          0          0      )

 cart.    s(11) = (  0.0000000  0.0000000  1.0000000 )
                  (  0.0000000  1.0000000  0.0000000 )
                  ( -1.0000000  0.0000000  0.0000000 )


      isym = 12      90 deg rotation - cart. axis [0,-1,0]       

 cryst.   s(12) = (     0          0          1      )
                  (     0          1          0      )
                  (    -1          0          0      )

 cart.    s(12) = (  0.0000000  0.0000000 -1.0000000 )
                  (  0.0000000  1.0000000  0.0000000 )
                  (  1.0000000  0.0000000  0.0000000 )


      isym = 13     180 deg rotation - cart. axis [0,1,1]        

 cryst.   s(13) = (    -1          0          0      )
                  (     0          0          1      )
                  (     0          1          0      )

 cart.    s(13) = ( -1.0000000  0.0000000  0.0000000 )
                  (  0.0000000  0.0000000  1.0000000 )
                  (  0.0000000  1.0000000  0.0000000 )


      isym = 14     180 deg rotation - cart. axis [0,1,-1]       

 cryst.   s(14) = (    -1          0          0      )
                  (     0          0         -1      )
                  (     0         -1          0      )

 cart.    s(14) = ( -1.0000000  0.0000000  0.0000000 )
                  (  0.0000000  0.0000000 -1.0000000 )
                  (  0.0000000 -1.0000000  0.0000000 )


      isym = 15      90 deg rotation - cart. axis [-1,0,0]       

 cryst.   s(15) = (     1          0          0      )
                  (     0          0         -1      )
                  (     0          1          0      )

 cart.    s(15) = (  1.0000000  0.0000000  0.0000000 )
                  (  0.0000000  0.0000000  1.0000000 )
                  (  0.0000000 -1.0000000  0.0000000 )


      isym = 16      90 deg rotation - cart. axis [1,0,0]        

 cryst.   s(16) = (     1          0          0      )
                  (     0          0          1      )
                  (     0         -1          0      )

 cart.    s(16) = (  1.0000000  0.0000000  0.0000000 )
                  (  0.0000000  0.0000000 -1.0000000 )
                  (  0.0000000  1.0000000  0.0000000 )


      isym = 17     120 deg rotation - cart. axis [-1,-1,-1]     

 cryst.   s(17) = (     0          0          1      )
                  (     1          0          0      )
                  (     0          1          0      )

 cart.    s(17) = (  0.0000000  1.0000000  0.0000000 )
                  (  0.0000000  0.0000000  1.0000000 )
                  (  1.0000000  0.0000000  0.0000000 )


      isym = 18     120 deg rotation - cart. axis [-1,1,1]       

 cryst.   s(18) = (     0          0         -1      )
                  (    -1          0          0      )
                  (     0          1          0      )

 cart.    s(18) = (  0.0000000 -1.0000000  0.0000000 )
                  (  0.0000000  0.0000000  1.0000000 )
                  ( -1.0000000  0.0000000  0.0000000 )


      isym = 19     120 deg rotation - cart. axis [1,1,-1]       

 cryst.   s(19) = (     0          0         -1      )
                  (     1          0          0      )
                  (     0         -1          0      )

 cart.    s(19) = (  0.0000000  1.0000000  0.0000000 )
                  (  0.0000000  0.0000000 -1.0000000 )
                  ( -1.0000000  0.0000000  0.0000000 )


      isym = 20     120 deg rotation - cart. axis [1,-1,1]       

 cryst.   s(20) = (     0          0          1      )
                  (    -1          0          0      )
                  (     0         -1          0      )

 cart.    s(20) = (  0.0000000 -1.0000000  0.0000000 )
                  (  0.0000000  0.0000000 -1.0000000 )
                  (  1.0000000  0.0000000  0.0000000 )


      isym = 21     120 deg rotation - cart. axis [1,1,1]        

 cryst.   s(21) = (     0          1          0      )
                  (     0          0          1      )
                  (     1          0          0      )

 cart.    s(21) = (  0.0000000  0.0000000  1.0000000 )
                  (  1.0000000  0.0000000  0.0000000 )
                  (  0.0000000  1.0000000  0.0000000 )


      isym = 22     120 deg rotation - cart. axis [-1,1,-1]      

 cryst.   s(22) = (     0         -1          0      )
                  (     0          0         -1      )
                  (     1          0          0      )

 cart.    s(22) = (  0.0000000  0.0000000  1.0000000 )
                  ( -1.0000000  0.0000000  0.0000000 )
                  (  0.0000000 -1.0000000  0.0000000 )


      isym = 23     120 deg rotation - cart. axis [1,-1,-1]      

 cryst.   s(23) = (     0         -1          0      )
                  (     0          0          1      )
                  (    -1          0          0      )

 cart.    s(23) = (  0.0000000  0.0000000 -1.0000000 )
                  ( -1.0000000  0.0000000  0.0000000 )
                  (  0.0000000  1.0000000  0.0000000 )


      isym = 24     120 deg rotation - cart. axis [-1,-1,1]      

 cryst.   s(24) = (     0          1          0      )
                  (     0          0         -1      )
                  (    -1          0          0      )

 cart.    s(24) = (  0.0000000  0.0000000 -1.0000000 )
                  (  1.0000000  0.0000000  0.0000000 )
                  (  0.0000000 -1.0000000  0.0000000 )


      isym = 25     inversion                                    

 cryst.   s(25) = (    -1          0          0      )
                  (     0         -1          0      )
                  (     0          0         -1      )

 cart.    s(25) = ( -1.0000000  0.0000000  0.0000000 )
                  (  0.0000000 -1.0000000  0.0000000 )
                  (  0.0000000  0.0000000 -1.0000000 )


      isym = 26     inv. 180 deg rotation - cart. axis [0,0,1]   

 cryst.   s(26) = (     1          0          0      )
                  (     0          1          0      )
                  (     0          0         -1      )

 cart.    s(26) = (  1.0000000  0.0000000  0.0000000 )
                  (  0.0000000  1.0000000  0.0000000 )
                  (  0.0000000  0.0000000 -1.0000000 )


      isym = 27     inv. 180 deg rotation - cart. axis [0,1,0]   

 cryst.   s(27) = (     1          0          0      )
                  (     0         -1          0      )
                  (     0          0          1      )

 cart.    s(27) = (  1.0000000  0.0000000  0.0000000 )
                  (  0.0000000 -1.0000000  0.0000000 )
                  (  0.0000000  0.0000000  1.0000000 )


      isym = 28     inv. 180 deg rotation - cart. axis [1,0,0]   

 cryst.   s(28) = (    -1          0          0      )
                  (     0          1          0      )
                  (     0          0          1      )

 cart.    s(28) = ( -1.0000000  0.0000000  0.0000000 )
                  (  0.0000000  1.0000000  0.0000000 )
                  (  0.0000000  0.0000000  1.0000000 )


      isym = 29     inv. 180 deg rotation - cart. axis [1,1,0]   

 cryst.   s(29) = (     0         -1          0      )
                  (    -1          0          0      )
                  (     0          0          1      )

 cart.    s(29) = (  0.0000000 -1.0000000  0.0000000 )
                  ( -1.0000000  0.0000000  0.0000000 )
                  (  0.0000000  0.0000000  1.0000000 )


      isym = 30     inv. 180 deg rotation - cart. axis [1,-1,0]  

 cryst.   s(30) = (     0          1          0      )
                  (     1          0          0      )
                  (     0          0          1      )

 cart.    s(30) = (  0.0000000  1.0000000  0.0000000 )
                  (  1.0000000  0.0000000  0.0000000 )
                  (  0.0000000  0.0000000  1.0000000 )


      isym = 31     inv.  90 deg rotation - cart. axis [0,0,-1]  

 cryst.   s(31) = (     0          1          0      )
                  (    -1          0          0      )
                  (     0          0         -1      )

 cart.    s(31) = (  0.0000000 -1.0000000  0.0000000 )
                  (  1.0000000  0.0000000  0.0000000 )
                  (  0.0000000  0.0000000 -1.0000000 )


      isym = 32     inv.  90 deg rotation - cart. axis [0,0,1]   

 cryst.   s(32) = (     0         -1          0      )
                  (     1          0          0      )
                  (     0          0         -1      )

 cart.    s(32) = (  0.0000000  1.0000000  0.0000000 )
                  ( -1.0000000  0.0000000  0.0000000 )
                  (  0.0000000  0.0000000 -1.0000000 )


      isym = 33     inv. 180 deg rotation - cart. axis [1,0,1]   

 cryst.   s(33) = (     0          0         -1      )
                  (     0          1          0      )
                  (    -1          0          0      )

 cart.    s(33) = (  0.0000000  0.0000000 -1.0000000 )
                  (  0.0000000  1.0000000  0.0000000 )
                  ( -1.0000000  0.0000000  0.0000000 )


      isym = 34     inv. 180 deg rotation - cart. axis [-1,0,1]  

 cryst.   s(34) = (     0          0          1      )
                  (     0          1          0      )
                  (     1          0          0      )

 cart.    s(34) = (  0.0000000  0.0000000  1.0000000 )
                  (  0.0000000  1.0000000  0.0000000 )
                  (  1.0000000  0.0000000  0.0000000 )


      isym = 35     inv.  90 deg rotation - cart. axis [0,1,0]   

 cryst.   s(35) = (     0          0          1      )
                  (     0         -1          0      )
                  (    -1          0          0      )

 cart.    s(35) = (  0.0000000  0.0000000 -1.0000000 )
                  (  0.0000000 -1.0000000  0.0000000 )
                  (  1.0000000  0.0000000  0.0000000 )


      isym = 36     inv.  90 deg rotation - cart. axis [0,-1,0]  

 cryst.   s(36) = (     0          0         -1      )
                  (     0         -1          0      )
                  (     1          0          0      )

 cart.    s(36) = (  0.0000000  0.0000000  1.0000000 )
                  (  0.0000000 -1.0000000  0.0000000 )
                  ( -1.0000000  0.0000000  0.0000000 )


      isym = 37     inv. 180 deg rotation - cart. axis [0,1,1]   

 cryst.   s(37) = (     1          0          0      )
                  (     0          0         -1      )
                  (     0         -1          0      )

 cart.    s(37) = (  1.0000000  0.0000000  0.0000000 )
                  (  0.0000000  0.0000000 -1.0000000 )
                  (  0.0000000 -1.0000000  0.0000000 )


      isym = 38     inv. 180 deg rotation - cart. axis [0,1,-1]  

 cryst.   s(38) = (     1          0          0      )
                  (     0          0          1      )
                  (     0          1          0      )

 cart.    s(38) = (  1.0000000  0.0000000  0.0000000 )
                  (  0.0000000  0.0000000  1.0000000 )
                  (  0.0000000  1.0000000  0.0000000 )


      isym = 39     inv.  90 deg rotation - cart. axis [-1,0,0]  

 cryst.   s(39) = (    -1          0          0      )
                  (     0          0          1      )
                  (     0         -1          0      )

 cart.    s(39) = ( -1.0000000  0.0000000  0.0000000 )
                  (  0.0000000  0.0000000 -1.0000000 )
                  (  0.0000000  1.0000000  0.0000000 )


      isym = 40     inv.  90 deg rotation - cart. axis [1,0,0]   

 cryst.   s(40) = (    -1          0          0      )
                  (     0          0         -1      )
                  (     0          1          0      )

 cart.    s(40) = ( -1.0000000  0.0000000  0.0000000 )
                  (  0.0000000  0.0000000  1.0000000 )
                  (  0.0000000 -1.0000000  0.0000000 )


      isym = 41     inv. 120 deg rotation - cart. axis [-1,-1,-1]

 cryst.   s(41) = (     0          0         -1      )
                  (    -1          0          0      )
                  (     0         -1          0      )

 cart.    s(41) = (  0.0000000 -1.0000000  0.0000000 )
                  (  0.0000000  0.0000000 -1.0000000 )
                  ( -1.0000000  0.0000000  0.0000000 )


      isym = 42     inv. 120 deg rotation - cart. axis [-1,1,1]  

 cryst.   s(42) = (     0          0          1      )
                  (     1          0          0      )
                  (     0         -1          0      )

 cart.    s(42) = (  0.0000000  1.0000000  0.0000000 )
                  (  0.0000000  0.0000000 -1.0000000 )
                  (  1.0000000  0.0000000  0.0000000 )


      isym = 43     inv. 120 deg rotation - cart. axis [1,1,-1]  

 cryst.   s(43) = (     0          0          1      )
                  (    -1          0          0      )
                  (     0          1          0      )

 cart.    s(43) = (  0.0000000 -1.0000000  0.0000000 )
                  (  0.0000000  0.0000000  1.0000000 )
                  (  1.0000000  0.0000000  0.0000000 )


      isym = 44     inv. 120 deg rotation - cart. axis [1,-1,1]  

 cryst.   s(44) = (     0          0         -1      )
                  (     1          0          0      )
                  (     0          1          0      )

 cart.    s(44) = (  0.0000000  1.0000000  0.0000000 )
                  (  0.0000000  0.0000000  1.0000000 )
                  ( -1.0000000  0.0000000  0.0000000 )


      isym = 45     inv. 120 deg rotation - cart. axis [1,1,1]   

 cryst.   s(45) = (     0         -1          0      )
                  (     0          0         -1      )
                  (    -1          0          0      )

 cart.    s(45) = (  0.0000000  0.0000000 -1.0000000 )
                  ( -1.0000000  0.0000000  0.0000000 )
                  (  0.0000000 -1.0000000  0.0000000 )


      isym = 46     inv. 120 deg rotation - cart. axis [-1,1,-1] 

 cryst.   s(46) = (     0          1          0      )
                  (     0          0          1      )
                  (    -1          0          0      )

 cart.    s(46) = (  0.0000000  0.0000000 -1.0000000 )
                  (  1.0000000  0.0000000  0.0000000 )
                  (  0.0000000  1.0000000  0.0000000 )


      isym = 47     inv. 120 deg rotation - cart. axis [1,-1,-1] 

 cryst.   s(47) = (     0          1          0      )
                  (     0          0         -1      )
                  (     1          0          0      )

 cart.    s(47) = (  0.0000000  0.0000000  1.0000000 )
                  (  1.0000000  0.0000000  0.0000000 )
                  (  0.0000000 -1.0000000  0.0000000 )


      isym = 48     inv. 120 deg rotation - cart. axis [-1,-1,1] 

 cryst.   s(48) = (     0         -1          0      )
                  (     0          0          1      )
                  (     1          0          0      )

 cart.    s(48) = (  0.0000000  0.0000000  1.0000000 )
                  ( -1.0000000  0.0000000  0.0000000 )
                  (  0.0000000  1.0000000  0.0000000 )


     point group O_h (m-3m) 
     there are 10 classes
     the character table:

       E     8C3   3C2   6C4   6C2'  i     8S6   3s_h  6S4   6s_d 
A_1g   1.00  1.00  1.00  1.00  1.00  1.00  1.00  1.00  1.00  1.00
A_2g   1.00  1.00  1.00 -1.00 -1.00  1.00  1.00  1.00 -1.00 -1.00
E_g    2.00 -1.00  2.00  0.00  0.00  2.00 -1.00  2.00  0.00  0.00
T_1g   3.00  0.00 -1.00  1.00 -1.00  3.00  0.00 -1.00  1.00 -1.00
T_2g   3.00  0.00 -1.00 -1.00  1.00  3.00  0.00 -1.00 -1.00  1.00
A_1u   1.00  1.00  1.00  1.00  1.00 -1.00 -1.00 -1.00 -1.00 -1.00
A_2u   1.00  1.00  1.00 -1.00 -1.00 -1.00 -1.00 -1.00  1.00  1.00
E_u    2.00 -1.00  2.00  0.00  0.00 -2.00  1.00 -2.00  0.00  0.00
T_1u   3.00  0.00 -1.00  1.00 -1.00 -3.00  0.00  1.00 -1.00  1.00
T_2u   3.00  0.00 -1.00 -1.00  1.00 -3.00  0.00  1.00  1.00 -1.00

     the symmetry operations in each class and the name of the first element:

     E        1
          identity                                               
     8C3     17   19   20   18   24   21   22   23
          120 deg rotation - cart. axis [-1,-1,-1]               
     3C2      2    4    3
          180 deg rotation - cart. axis [0,0,1]                  
     6C4      7    8   15   16   12   11
           90 deg rotation - cart. axis [0,0,-1]                 
     6C2'     5    6   14   13   10    9
          180 deg rotation - cart. axis [1,1,0]                  
     i       25
          inversion                                              
     8S6     41   43   44   42   48   45   46   47
          inv. 120 deg rotation - cart. axis [-1,-1,-1]          
     3s_h    26   28   27
          inv. 180 deg rotation - cart. axis [0,0,1]             
     6S4     31   32   39   40   36   35
          inv.  90 deg rotation - cart. axis [0,0,-1]            
     6s_d    29   30   38   37   34   33
          inv. 180 deg rotation - cart. axis [1,1,0]             

   Cartesian axes

     site n.     atom                  positions (alat units)
         1           Fe  tau(   1) = (   0.0000000   0.0000000   0.0000000  )
         2           Mg  tau(   2) = (   0.0000000   0.5000000   0.5000000  )
         3           Mg  tau(   3) = (   0.5000000   0.0000000   0.5000000  )
         4           Mg  tau(   4) = (   0.5000000   0.5000000   0.0000000  )
         5           O   tau(   5) = (   0.5000000   0.5000000   0.5000000  )
         6           O   tau(   6) = (   0.5000000   0.0000000   0.0000000  )
         7           O   tau(   7) = (   0.0000000   0.5000000   0.0000000  )
         8           O   tau(   8) = (   0.0000000   0.0000000   0.5000000  )

   Crystallographic axes

     site n.     atom                  positions (cryst. coord.)
         1           Fe  tau(   1) = (  0.0000000  0.0000000  0.0000000  )
         2           Mg  tau(   2) = (  0.0000000  0.5000000  0.5000000  )
         3           Mg  tau(   3) = (  0.5000000  0.0000000  0.5000000  )
         4           Mg  tau(   4) = (  0.5000000  0.5000000  0.0000000  )
         5           O   tau(   5) = (  0.5000000  0.5000000  0.5000000  )
         6           O   tau(   6) = (  0.5000000  0.0000000  0.0000000  )
         7           O   tau(   7) = (  0.0000000  0.5000000  0.0000000  )
         8           O   tau(   8) = (  0.0000000  0.0000000  0.5000000  )

     number of k points=     4  Fermi-Dirac smearing, width (Ry)=  0.0019
                       cart. coord. in units 2pi/alat
        k(    1) = (   0.0000000   0.0000000   0.0000000), wk =   0.1250000
        k(    2) = (   0.0000000   0.0000000  -0.5000000), wk =   0.3750000
        k(    3) = (   0.0000000  -0.5000000  -0.5000000), wk =   0.3750000
        k(    4) = (  -0.5000000  -0.5000000  -0.5000000), wk =   0.1250000

                       cryst. coord.
        k(    1) = (   0.0000000   0.0000000   0.0000000), wk =   0.1250000
        k(    2) = (   0.0000000   0.0000000  -0.5000000), wk =   0.3750000
        k(    3) = (   0.0000000  -0.5000000  -0.5000000), wk =   0.3750000
        k(    4) = (  -0.5000000  -0.5000000  -0.5000000), wk =   0.1250000

     Dense  grid:  1540499 G-vectors     FFT dimensions: ( 144, 144, 144)

     Dynamical RAM for                 wfc:       1.96 MB

     Dynamical RAM for     wfc (w. buffer):      17.63 MB

     Dynamical RAM for           str. fact:       1.47 MB

     Dynamical RAM for           local pot:       0.00 MB

     Dynamical RAM for          nlocal pot:       1.84 MB

     Dynamical RAM for                qrad:       1.94 MB

     Dynamical RAM for          rho,v,vnew:      11.57 MB

     Dynamical RAM for               rhoin:       3.86 MB

     Dynamical RAM for            rho*nmix:      31.34 MB

     Dynamical RAM for           G-vectors:       2.08 MB

     Dynamical RAM for          h,s,v(r/c):       0.00 MB

     Dynamical RAM for          <psi|beta>:       0.01 MB

     Dynamical RAM for                 psi:       3.92 MB

     Dynamical RAM for                hpsi:       3.92 MB

     Dynamical RAM for      wfcinit/wfcrot:       6.43 MB

     Estimated static dynamical RAM per process >      77.48 MB

     Estimated max dynamical RAM per process >      85.34 MB

     Estimated total dynamical RAM >       4.00 GB
     Generating pointlists ...
     new r_m :   0.2063 (alat units)  1.6413 (a.u.) for type    1
     new r_m :   0.2063 (alat units)  1.6413 (a.u.) for type    2
     new r_m :   0.2063 (alat units)  1.6413 (a.u.) for type    3

     Initial potential from superposition of free atoms

     starting charge   39.00170, renormalised to   46.00000

     negative rho (up,down):  5.502E-07 5.536E-07
     Starting wfcs are   52 randomized atomic wfcs

     total cpu time spent up to now is        7.8 secs

     Self-consistent Calculation

     iteration #  1     ecut=   800.00 Ry     beta= 0.20
     Davidson diagonalization with overlap
     ethr =  1.00E-02,  avg # of iterations =  8.9

     negative rho (up,down):  3.555E-07 3.838E-07

     total cpu time spent up to now is       20.6 secs

     total energy              =    -374.89950689 Ry
     estimated scf accuracy    < 3473733.77523984 Ry

     total magnetization       =     4.00 Bohr mag/cell
     absolute magnetization    =     4.48 Bohr mag/cell

     iteration #  2     ecut=   800.00 Ry     beta= 0.20
     Davidson diagonalization with overlap
     ethr =  1.00E-02,  avg # of iterations =  4.6

     total cpu time spent up to now is       29.4 secs

     total energy              =    -375.48305568 Ry
     estimated scf accuracy    < 1965950.36372992 Ry

     total magnetization       =     4.00 Bohr mag/cell
     absolute magnetization    =     4.21 Bohr mag/cell

     iteration #  3     ecut=   800.00 Ry     beta= 0.20
     Davidson diagonalization with overlap
     ethr =  1.00E-02,  avg # of iterations =  7.4

     total cpu time spent up to now is       42.8 secs

     total energy              =    -386.04001393 Ry
     estimated scf accuracy    < 1426932.15942181 Ry

     total magnetization       =     4.00 Bohr mag/cell
     absolute magnetization    =     4.12 Bohr mag/cell

     iteration #  4     ecut=   800.00 Ry     beta= 0.20
     Davidson diagonalization with overlap
     ethr =  1.00E-02,  avg # of iterations =  2.0

     total cpu time spent up to now is       49.9 secs

     total energy              =    -383.52512027 Ry
     estimated scf accuracy    <  617097.43114190 Ry

     total magnetization       =     4.00 Bohr mag/cell
     absolute magnetization    =     4.14 Bohr mag/cell

     iteration #  5     ecut=   800.00 Ry     beta= 0.20
     Davidson diagonalization with overlap
     ethr =  1.00E-02,  avg # of iterations =  1.8

     total cpu time spent up to now is       56.7 secs

     total energy              =    -370.04928743 Ry
     estimated scf accuracy    <  403972.17448371 Ry

     total magnetization       =     4.00 Bohr mag/cell
     absolute magnetization    =     4.17 Bohr mag/cell

     iteration #  6     ecut=   800.00 Ry     beta= 0.20
     Davidson diagonalization with overlap
     ethr =  1.00E-02,  avg # of iterations =  6.9

     total cpu time spent up to now is       67.1 secs

     total energy              =    -373.31111385 Ry
     estimated scf accuracy    <  721953.01764763 Ry

     total magnetization       =     4.00 Bohr mag/cell
     absolute magnetization    =     4.11 Bohr mag/cell

     iteration #  7     ecut=   800.00 Ry     beta= 0.20
     Davidson diagonalization with overlap
     ethr =  1.00E-02,  avg # of iterations =  9.9

     total cpu time spent up to now is       80.0 secs

     total energy              =    -382.11137922 Ry
     estimated scf accuracy    <  150621.14915663 Ry

     total magnetization       =     4.00 Bohr mag/cell
     absolute magnetization    =     4.00 Bohr mag/cell

     iteration #  8     ecut=   800.00 Ry     beta= 0.20
     Davidson diagonalization with overlap
     ethr =  1.00E-02,  avg # of iterations =  1.0

     total cpu time spent up to now is       86.6 secs

     total energy              =    -380.04971003 Ry
     estimated scf accuracy    <   57224.29125326 Ry

     total magnetization       =     4.00 Bohr mag/cell
     absolute magnetization    =     4.00 Bohr mag/cell

     iteration #  9     ecut=   800.00 Ry     beta= 0.20
     Davidson diagonalization with overlap
     ethr =  1.00E-02,  avg # of iterations =  2.1

     total cpu time spent up to now is       93.7 secs

     total energy              =    -382.33842557 Ry
     estimated scf accuracy    <  150631.42745931 Ry

     total magnetization       =     4.00 Bohr mag/cell
     absolute magnetization    =     4.01 Bohr mag/cell

     iteration # 10     ecut=   800.00 Ry     beta= 0.20
     Davidson diagonalization with overlap
     ethr =  1.00E-02,  avg # of iterations =  1.0

     total cpu time spent up to now is      100.3 secs

     total energy              =    -382.16287868 Ry
     estimated scf accuracy    <  153110.96928478 Ry

     total magnetization       =     4.00 Bohr mag/cell
     absolute magnetization    =     4.01 Bohr mag/cell

     iteration # 11     ecut=   800.00 Ry     beta= 0.20
     Davidson diagonalization with overlap
     ethr =  1.00E-02,  avg # of iterations =  1.0

     total cpu time spent up to now is      106.9 secs

     total energy              =    -381.78258588 Ry
     estimated scf accuracy    <  137888.82923071 Ry

     total magnetization       =     4.00 Bohr mag/cell
     absolute magnetization    =     4.02 Bohr mag/cell

     iteration # 12     ecut=   800.00 Ry     beta= 0.20
     Davidson diagonalization with overlap
     ethr =  1.00E-02,  avg # of iterations =  1.0

     total cpu time spent up to now is      113.5 secs

     total energy              =    -381.79847643 Ry
     estimated scf accuracy    <   99298.50701793 Ry

     total magnetization       =     4.00 Bohr mag/cell
     absolute magnetization    =     4.06 Bohr mag/cell

     iteration # 13     ecut=   800.00 Ry     beta= 0.20
     Davidson diagonalization with overlap
     ethr =  1.00E-02,  avg # of iterations =  1.0

     total cpu time spent up to now is      120.1 secs

     total energy              =    -381.84448351 Ry
     estimated scf accuracy    <   52207.78098000 Ry

     total magnetization       =     4.00 Bohr mag/cell
     absolute magnetization    =     4.06 Bohr mag/cell

     iteration # 14     ecut=   800.00 Ry     beta= 0.20
     Davidson diagonalization with overlap
     ethr =  1.00E-02,  avg # of iterations =  1.0

     total cpu time spent up to now is      127.0 secs

     total energy              =    -381.80827925 Ry
     estimated scf accuracy    <   31790.61732763 Ry

     total magnetization       =     4.00 Bohr mag/cell
     absolute magnetization    =     4.07 Bohr mag/cell

     iteration # 15     ecut=   800.00 Ry     beta= 0.20
     Davidson diagonalization with overlap
     ethr =  1.00E-02,  avg # of iterations =  1.0

     total cpu time spent up to now is      133.6 secs

     total energy              =    -381.77758947 Ry
     estimated scf accuracy    <   15534.95985983 Ry

     total magnetization       =     4.00 Bohr mag/cell
     absolute magnetization    =     4.06 Bohr mag/cell

     iteration # 16     ecut=   800.00 Ry     beta= 0.20
     Davidson diagonalization with overlap
     ethr =  1.00E-02,  avg # of iterations =  1.0

     total cpu time spent up to now is      140.1 secs

     total energy              =    -381.80218372 Ry
     estimated scf accuracy    <   11442.93170431 Ry

     total magnetization       =     4.00 Bohr mag/cell
     absolute magnetization    =     4.00 Bohr mag/cell

     iteration # 17     ecut=   800.00 Ry     beta= 0.20
     Davidson diagonalization with overlap
     ethr =  1.00E-02,  avg # of iterations =  1.0

     total cpu time spent up to now is      146.7 secs

     total energy              =    -381.86521741 Ry
     estimated scf accuracy    <    1017.94916476 Ry

     total magnetization       =     4.00 Bohr mag/cell
     absolute magnetization    =     4.02 Bohr mag/cell

     iteration # 18     ecut=   800.00 Ry     beta= 0.20
     Davidson diagonalization with overlap
     ethr =  1.00E-02,  avg # of iterations =  1.0

     total cpu time spent up to now is      153.4 secs

     total energy              =    -381.82814394 Ry
     estimated scf accuracy    <    1997.14770908 Ry

     total magnetization       =     4.00 Bohr mag/cell
     absolute magnetization    =     4.04 Bohr mag/cell

     iteration # 19     ecut=   800.00 Ry     beta= 0.20
     Davidson diagonalization with overlap
     ethr =  1.00E-02,  avg # of iterations =  1.0

     total cpu time spent up to now is      160.0 secs

     total energy              =    -381.91274282 Ry
     estimated scf accuracy    <   13820.33420899 Ry

     total magnetization       =     4.00 Bohr mag/cell
     absolute magnetization    =     4.06 Bohr mag/cell

     iteration # 20     ecut=   800.00 Ry     beta= 0.20
     Davidson diagonalization with overlap
     ethr =  1.00E-02,  avg # of iterations =  1.0

     total cpu time spent up to now is      166.6 secs

     total energy              =    -381.95871825 Ry
     estimated scf accuracy    <   11320.36734493 Ry

     total magnetization       =     4.00 Bohr mag/cell
     absolute magnetization    =     4.06 Bohr mag/cell

     iteration # 21     ecut=   800.00 Ry     beta= 0.20
     Davidson diagonalization with overlap
     ethr =  1.00E-02,  avg # of iterations =  1.8

     total cpu time spent up to now is      173.3 secs

     total energy              =    -382.01952737 Ry
     estimated scf accuracy    <   22844.28017343 Ry

     total magnetization       =     4.00 Bohr mag/cell
     absolute magnetization    =     4.14 Bohr mag/cell

     iteration # 22     ecut=   800.00 Ry     beta= 0.20
     Davidson diagonalization with overlap
     ethr =  1.00E-02,  avg # of iterations =  1.8

     total cpu time spent up to now is      180.1 secs

     total energy              =    -382.03128971 Ry
     estimated scf accuracy    <   17469.28525192 Ry

     total magnetization       =     4.00 Bohr mag/cell
     absolute magnetization    =     4.14 Bohr mag/cell

     iteration # 23     ecut=   800.00 Ry     beta= 0.20
     Davidson diagonalization with overlap
     ethr =  1.00E-02,  avg # of iterations =  1.0

     total cpu time spent up to now is      186.7 secs

     total energy              =    -381.97629607 Ry
     estimated scf accuracy    <   19049.47616208 Ry

     total magnetization       =     4.00 Bohr mag/cell
     absolute magnetization    =     4.13 Bohr mag/cell

     iteration # 24     ecut=   800.00 Ry     beta= 0.20
     Davidson diagonalization with overlap
     ethr =  1.00E-02,  avg # of iterations =  1.0

     total cpu time spent up to now is      193.3 secs

     total energy              =    -381.99508714 Ry
     estimated scf accuracy    <   10011.79948002 Ry

     total magnetization       =     4.00 Bohr mag/cell
     absolute magnetization    =     4.23 Bohr mag/cell

     iteration # 25     ecut=   800.00 Ry     beta= 0.20
     Davidson diagonalization with overlap
     ethr =  1.00E-02,  avg # of iterations =  1.0

     total cpu time spent up to now is      199.9 secs

     total energy              =    -381.95380956 Ry
     estimated scf accuracy    <    8137.66757079 Ry

     total magnetization       =     4.00 Bohr mag/cell
     absolute magnetization    =     4.18 Bohr mag/cell

     iteration # 26     ecut=   800.00 Ry     beta= 0.20
     Davidson diagonalization with overlap
     ethr =  1.00E-02,  avg # of iterations =  1.0

     total cpu time spent up to now is      206.5 secs

     total energy              =    -382.08419130 Ry
     estimated scf accuracy    <   11345.33726059 Ry

     total magnetization       =     4.00 Bohr mag/cell
     absolute magnetization    =     4.09 Bohr mag/cell

     iteration # 27     ecut=   800.00 Ry     beta= 0.20
     Davidson diagonalization with overlap
     ethr =  1.00E-02,  avg # of iterations =  1.1

     total cpu time spent up to now is      213.2 secs

     total energy              =    -382.00665971 Ry
     estimated scf accuracy    <   49503.64913219 Ry

     total magnetization       =     4.00 Bohr mag/cell
     absolute magnetization    =     4.01 Bohr mag/cell

     iteration # 28     ecut=   800.00 Ry     beta= 0.20
     Davidson diagonalization with overlap
     ethr =  1.00E-02,  avg # of iterations =  1.0

     total cpu time spent up to now is      219.8 secs

     total energy              =    -382.16717245 Ry
     estimated scf accuracy    <     641.01019952 Ry

     total magnetization       =     4.00 Bohr mag/cell
     absolute magnetization    =     4.07 Bohr mag/cell

     iteration # 29     ecut=   800.00 Ry     beta= 0.20
     Davidson diagonalization with overlap
     ethr =  1.00E-02,  avg # of iterations =  1.0

     total cpu time spent up to now is      226.4 secs

     total energy              =    -381.54700920 Ry
     estimated scf accuracy    <   26434.21022369 Ry

     total magnetization       =     4.00 Bohr mag/cell
     absolute magnetization    =     4.02 Bohr mag/cell

     iteration # 30     ecut=   800.00 Ry     beta= 0.20
     Davidson diagonalization with overlap
     ethr =  1.00E-02,  avg # of iterations =  1.2

     total cpu time spent up to now is      233.1 secs

     total energy              =    -382.13947010 Ry
     estimated scf accuracy    <   20928.09092129 Ry

     total magnetization       =     4.00 Bohr mag/cell
     absolute magnetization    =     4.29 Bohr mag/cell

     iteration # 31     ecut=   800.00 Ry     beta= 0.20
     Davidson diagonalization with overlap
     ethr =  1.00E-02,  avg # of iterations =  1.0

     total cpu time spent up to now is      239.7 secs

     total energy              =    -382.13484674 Ry
     estimated scf accuracy    <   37707.78212602 Ry

     total magnetization       =     4.00 Bohr mag/cell
     absolute magnetization    =     4.36 Bohr mag/cell

     iteration # 32     ecut=   800.00 Ry     beta= 0.20
     Davidson diagonalization with overlap
     ethr =  1.00E-02,  avg # of iterations =  1.0

     total cpu time spent up to now is      246.3 secs

     total energy              =    -382.06578969 Ry
     estimated scf accuracy    <   27332.66002204 Ry

     total magnetization       =     4.00 Bohr mag/cell
     absolute magnetization    =     4.36 Bohr mag/cell

     iteration # 33     ecut=   800.00 Ry     beta= 0.20
     Davidson diagonalization with overlap
     ethr =  1.00E-02,  avg # of iterations =  1.0

     total cpu time spent up to now is      252.9 secs

     total energy              =    -382.09481450 Ry
     estimated scf accuracy    <    9344.86077639 Ry

     total magnetization       =     4.00 Bohr mag/cell
     absolute magnetization    =     4.50 Bohr mag/cell

     iteration # 34     ecut=   800.00 Ry     beta= 0.20
     Davidson diagonalization with overlap
     ethr =  1.00E-02,  avg # of iterations =  1.0

     total cpu time spent up to now is      259.5 secs

     total energy              =    -382.08752020 Ry
     estimated scf accuracy    <    8321.30573385 Ry

     total magnetization       =     4.00 Bohr mag/cell
     absolute magnetization    =     4.51 Bohr mag/cell

     iteration # 35     ecut=   800.00 Ry     beta= 0.20
     Davidson diagonalization with overlap
     ethr =  1.00E-02,  avg # of iterations =  1.0

     total cpu time spent up to now is      266.2 secs

     total energy              =    -382.10129537 Ry
     estimated scf accuracy    <    7474.03003420 Ry

     total magnetization       =     4.00 Bohr mag/cell
     absolute magnetization    =     4.49 Bohr mag/cell

     iteration # 36     ecut=   800.00 Ry     beta= 0.20
     Davidson diagonalization with overlap
     ethr =  1.00E-02,  avg # of iterations =  1.0

     total cpu time spent up to now is      272.8 secs

     total energy              =    -382.04817551 Ry
     estimated scf accuracy    <    9730.86698189 Ry

     total magnetization       =     4.00 Bohr mag/cell
     absolute magnetization    =     4.50 Bohr mag/cell

     iteration # 37     ecut=   800.00 Ry     beta= 0.20
     Davidson diagonalization with overlap
     ethr =  1.00E-02,  avg # of iterations =  1.0

     total cpu time spent up to now is      279.4 secs

     total energy              =    -382.04288157 Ry
     estimated scf accuracy    <     677.37198999 Ry

     total magnetization       =     4.00 Bohr mag/cell
     absolute magnetization    =     4.26 Bohr mag/cell

     iteration # 38     ecut=   800.00 Ry     beta= 0.20
     Davidson diagonalization with overlap
     ethr =  1.00E-02,  avg # of iterations =  1.0

     total cpu time spent up to now is      286.0 secs

     total energy              =    -382.04925733 Ry
     estimated scf accuracy    <       3.91245760 Ry

     total magnetization       =     4.00 Bohr mag/cell
     absolute magnetization    =     4.20 Bohr mag/cell

     iteration # 39     ecut=   800.00 Ry     beta= 0.20
     Davidson diagonalization with overlap
     ethr =  8.51E-03,  avg # of iterations =  1.0

     total cpu time spent up to now is      292.6 secs

     total energy              =    -382.05083231 Ry
     estimated scf accuracy    <       3.46059768 Ry

     total magnetization       =     4.00 Bohr mag/cell
     absolute magnetization    =     4.16 Bohr mag/cell

     iteration # 40     ecut=   800.00 Ry     beta= 0.20
     Davidson diagonalization with overlap
     ethr =  7.52E-03,  avg # of iterations =  1.0

     total cpu time spent up to now is      299.3 secs

     total energy              =    -382.04935262 Ry
     estimated scf accuracy    <      37.84510716 Ry

     total magnetization       =     4.00 Bohr mag/cell
     absolute magnetization    =     4.17 Bohr mag/cell

     iteration # 41     ecut=   800.00 Ry     beta= 0.20
     Davidson diagonalization with overlap
     ethr =  7.52E-03,  avg # of iterations =  1.0

     total cpu time spent up to now is      305.9 secs

     total energy              =    -382.05201948 Ry
     estimated scf accuracy    <     480.59742385 Ry

     total magnetization       =     4.00 Bohr mag/cell
     absolute magnetization    =     4.16 Bohr mag/cell

     iteration # 42     ecut=   800.00 Ry     beta= 0.20
     Davidson diagonalization with overlap
     ethr =  7.52E-03,  avg # of iterations =  1.0

     total cpu time spent up to now is      312.5 secs

     total energy              =    -382.05255072 Ry
     estimated scf accuracy    <      59.92365688 Ry

     total magnetization       =     4.00 Bohr mag/cell
     absolute magnetization    =     4.18 Bohr mag/cell

     iteration # 43     ecut=   800.00 Ry     beta= 0.20
     Davidson diagonalization with overlap
     ethr =  7.52E-03,  avg # of iterations =  1.0

     total cpu time spent up to now is      319.1 secs

     total energy              =    -382.05268049 Ry
     estimated scf accuracy    <      14.91748302 Ry

     total magnetization       =     4.00 Bohr mag/cell
     absolute magnetization    =     4.18 Bohr mag/cell

     iteration # 44     ecut=   800.00 Ry     beta= 0.20
     Davidson diagonalization with overlap
     ethr =  7.52E-03,  avg # of iterations =  1.0

     total cpu time spent up to now is      325.7 secs

     total energy              =    -382.05271775 Ry
     estimated scf accuracy    <       0.15115552 Ry

     total magnetization       =     4.00 Bohr mag/cell
     absolute magnetization    =     4.18 Bohr mag/cell

     iteration # 45     ecut=   800.00 Ry     beta= 0.20
     Davidson diagonalization with overlap
     ethr =  3.29E-04,  avg # of iterations =  2.8

     total cpu time spent up to now is      332.8 secs

     total energy              =    -382.05284249 Ry
     estimated scf accuracy    <       1.01576735 Ry

     total magnetization       =     4.00 Bohr mag/cell
     absolute magnetization    =     4.18 Bohr mag/cell

     iteration # 46     ecut=   800.00 Ry     beta= 0.20
     Davidson diagonalization with overlap
     ethr =  3.29E-04,  avg # of iterations =  1.0

     total cpu time spent up to now is      339.4 secs

     total energy              =    -382.05295640 Ry
     estimated scf accuracy    <       0.24969700 Ry

     total magnetization       =     4.00 Bohr mag/cell
     absolute magnetization    =     4.17 Bohr mag/cell

     iteration # 47     ecut=   800.00 Ry     beta= 0.20
     Davidson diagonalization with overlap
     ethr =  3.29E-04,  avg # of iterations =  1.0

     total cpu time spent up to now is      346.0 secs

     total energy              =    -382.05300824 Ry
     estimated scf accuracy    <       1.04312286 Ry

     total magnetization       =     4.00 Bohr mag/cell
     absolute magnetization    =     4.16 Bohr mag/cell

     iteration # 48     ecut=   800.00 Ry     beta= 0.20
     Davidson diagonalization with overlap
     ethr =  3.29E-04,  avg # of iterations =  1.0

     total cpu time spent up to now is      352.6 secs

     total energy              =    -382.05300492 Ry
     estimated scf accuracy    <       0.26671834 Ry

     total magnetization       =     4.00 Bohr mag/cell
     absolute magnetization    =     4.15 Bohr mag/cell

     iteration # 49     ecut=   800.00 Ry     beta= 0.20
     Davidson diagonalization with overlap
     ethr =  3.29E-04,  avg # of iterations =  1.0

     total cpu time spent up to now is      359.3 secs

     total energy              =    -382.05302190 Ry
     estimated scf accuracy    <       0.10600662 Ry

     total magnetization       =     4.00 Bohr mag/cell
     absolute magnetization    =     4.15 Bohr mag/cell

     iteration # 50     ecut=   800.00 Ry     beta= 0.20
     Davidson diagonalization with overlap
     ethr =  2.30E-04,  avg # of iterations =  1.9

     total cpu time spent up to now is      366.0 secs

     total energy              =    -382.05301519 Ry
     estimated scf accuracy    <       0.06572260 Ry

     total magnetization       =     4.00 Bohr mag/cell
     absolute magnetization    =     4.15 Bohr mag/cell

     iteration # 51     ecut=   800.00 Ry     beta= 0.20
     Davidson diagonalization with overlap
     ethr =  1.43E-04,  avg # of iterations =  1.0

     total cpu time spent up to now is      372.6 secs

     total energy              =    -382.05302201 Ry
     estimated scf accuracy    <       0.05493921 Ry

     total magnetization       =     4.00 Bohr mag/cell
     absolute magnetization    =     4.15 Bohr mag/cell

     iteration # 52     ecut=   800.00 Ry     beta= 0.20
     Davidson diagonalization with overlap
     ethr =  1.19E-04,  avg # of iterations =  1.0

     total cpu time spent up to now is      379.2 secs

     total energy              =    -382.05302174 Ry
     estimated scf accuracy    <       0.03943100 Ry

     total magnetization       =     4.00 Bohr mag/cell
     absolute magnetization    =     4.15 Bohr mag/cell

     iteration # 53     ecut=   800.00 Ry     beta= 0.20
     Davidson diagonalization with overlap
     ethr =  8.57E-05,  avg # of iterations =  1.0

     total cpu time spent up to now is      385.8 secs

     total energy              =    -382.05302951 Ry
     estimated scf accuracy    <       0.01227994 Ry

     total magnetization       =     4.00 Bohr mag/cell
     absolute magnetization    =     4.15 Bohr mag/cell

     iteration # 54     ecut=   800.00 Ry     beta= 0.20
     Davidson diagonalization with overlap
     ethr =  2.67E-05,  avg # of iterations =  1.0

     total cpu time spent up to now is      392.5 secs

     total energy              =    -382.05303091 Ry
     estimated scf accuracy    <       0.07609597 Ry

     total magnetization       =     4.00 Bohr mag/cell
     absolute magnetization    =     4.15 Bohr mag/cell

     iteration # 55     ecut=   800.00 Ry     beta= 0.20
     Davidson diagonalization with overlap
     ethr =  2.67E-05,  avg # of iterations =  1.0

     total cpu time spent up to now is      399.1 secs

     total energy              =    -382.05303623 Ry
     estimated scf accuracy    <       0.08549320 Ry

     total magnetization       =     4.00 Bohr mag/cell
     absolute magnetization    =     4.15 Bohr mag/cell

     iteration # 56     ecut=   800.00 Ry     beta= 0.20
     Davidson diagonalization with overlap
     ethr =  2.67E-05,  avg # of iterations =  1.0

     total cpu time spent up to now is      405.7 secs

     total energy              =    -382.05303889 Ry
     estimated scf accuracy    <       0.17068755 Ry

     total magnetization       =     4.00 Bohr mag/cell
     absolute magnetization    =     4.15 Bohr mag/cell

     iteration # 57     ecut=   800.00 Ry     beta= 0.20
     Davidson diagonalization with overlap
     ethr =  2.67E-05,  avg # of iterations =  1.0

     total cpu time spent up to now is      412.2 secs

     total energy              =    -382.05303975 Ry
     estimated scf accuracy    <       0.06575184 Ry

     total magnetization       =     4.00 Bohr mag/cell
     absolute magnetization    =     4.15 Bohr mag/cell

     iteration # 58     ecut=   800.00 Ry     beta= 0.20
     Davidson diagonalization with overlap
     ethr =  2.67E-05,  avg # of iterations =  1.0

     total cpu time spent up to now is      419.4 secs

     total energy              =    -382.05303969 Ry
     estimated scf accuracy    <       0.04712848 Ry

     total magnetization       =     4.00 Bohr mag/cell
     absolute magnetization    =     4.15 Bohr mag/cell

     iteration # 59     ecut=   800.00 Ry     beta= 0.20
     Davidson diagonalization with overlap
     ethr =  2.67E-05,  avg # of iterations =  1.0

     total cpu time spent up to now is      426.2 secs

     total energy              =    -382.05303895 Ry
     estimated scf accuracy    <       0.04589506 Ry

     total magnetization       =     4.00 Bohr mag/cell
     absolute magnetization    =     4.15 Bohr mag/cell

     iteration # 60     ecut=   800.00 Ry     beta= 0.20
     Davidson diagonalization with overlap
     ethr =  2.67E-05,  avg # of iterations =  1.0

     total cpu time spent up to now is      432.8 secs

     total energy              =    -382.05304007 Ry
     estimated scf accuracy    <       0.00618812 Ry

     total magnetization       =     4.00 Bohr mag/cell
     absolute magnetization    =     4.14 Bohr mag/cell

     iteration # 61     ecut=   800.00 Ry     beta= 0.20
     Davidson diagonalization with overlap
     ethr =  1.35E-05,  avg # of iterations =  1.0

     total cpu time spent up to now is      439.4 secs

     total energy              =    -382.05304065 Ry
     estimated scf accuracy    <       0.00212984 Ry

     total magnetization       =     4.00 Bohr mag/cell
     absolute magnetization    =     4.14 Bohr mag/cell

     iteration # 62     ecut=   800.00 Ry     beta= 0.20
     Davidson diagonalization with overlap
     ethr =  4.63E-06,  avg # of iterations =  1.0

     total cpu time spent up to now is      446.0 secs

     total energy              =    -382.05304064 Ry
     estimated scf accuracy    <       0.00155385 Ry

     total magnetization       =     4.00 Bohr mag/cell
     absolute magnetization    =     4.14 Bohr mag/cell

     iteration # 63     ecut=   800.00 Ry     beta= 0.20
     Davidson diagonalization with overlap
     ethr =  3.38E-06,  avg # of iterations =  2.6

     total cpu time spent up to now is      452.9 secs

     total energy              =    -382.05304069 Ry
     estimated scf accuracy    <       0.00232691 Ry

     total magnetization       =     4.00 Bohr mag/cell
     absolute magnetization    =     4.14 Bohr mag/cell

     iteration # 64     ecut=   800.00 Ry     beta= 0.20
     Davidson diagonalization with overlap
     ethr =  3.38E-06,  avg # of iterations =  1.0

     total cpu time spent up to now is      459.5 secs

     total energy              =    -382.05304063 Ry
     estimated scf accuracy    <       0.00145542 Ry

     total magnetization       =     4.00 Bohr mag/cell
     absolute magnetization    =     4.14 Bohr mag/cell

     iteration # 65     ecut=   800.00 Ry     beta= 0.20
     Davidson diagonalization with overlap
     ethr =  3.16E-06,  avg # of iterations =  1.0

     total cpu time spent up to now is      466.1 secs

     total energy              =    -382.05304064 Ry
     estimated scf accuracy    <       0.00148491 Ry

     total magnetization       =     4.00 Bohr mag/cell
     absolute magnetization    =     4.14 Bohr mag/cell

     iteration # 66     ecut=   800.00 Ry     beta= 0.20
     Davidson diagonalization with overlap
     ethr =  3.16E-06,  avg # of iterations =  1.0

     total cpu time spent up to now is      472.7 secs

     total energy              =    -382.05304043 Ry
     estimated scf accuracy    <       0.00127762 Ry

     total magnetization       =     4.00 Bohr mag/cell
     absolute magnetization    =     4.14 Bohr mag/cell

     iteration # 67     ecut=   800.00 Ry     beta= 0.20
     Davidson diagonalization with overlap
     ethr =  2.78E-06,  avg # of iterations =  1.0

     total cpu time spent up to now is      479.4 secs

     total energy              =    -382.05304045 Ry
     estimated scf accuracy    <       0.00050822 Ry

     total magnetization       =     4.00 Bohr mag/cell
     absolute magnetization    =     4.14 Bohr mag/cell

     iteration # 68     ecut=   800.00 Ry     beta= 0.20
     Davidson diagonalization with overlap
     ethr =  1.10E-06,  avg # of iterations =  1.0

     total cpu time spent up to now is      486.0 secs

     total energy              =    -382.05304060 Ry
     estimated scf accuracy    <       0.00215227 Ry

     total magnetization       =     4.00 Bohr mag/cell
     absolute magnetization    =     4.14 Bohr mag/cell

     iteration # 69     ecut=   800.00 Ry     beta= 0.20
     Davidson diagonalization with overlap
     ethr =  1.10E-06,  avg # of iterations =  1.0

     total cpu time spent up to now is      492.6 secs

     total energy              =    -382.05304065 Ry
     estimated scf accuracy    <       0.00014291 Ry

     total magnetization       =     4.00 Bohr mag/cell
     absolute magnetization    =     4.14 Bohr mag/cell

     iteration # 70     ecut=   800.00 Ry     beta= 0.20
     Davidson diagonalization with overlap
     ethr =  3.11E-07,  avg # of iterations =  1.0

     total cpu time spent up to now is      499.3 secs

     total energy              =    -382.05304067 Ry
     estimated scf accuracy    <       0.00020084 Ry

     total magnetization       =     4.00 Bohr mag/cell
     absolute magnetization    =     4.14 Bohr mag/cell

     iteration # 71     ecut=   800.00 Ry     beta= 0.20
     Davidson diagonalization with overlap
     ethr =  3.11E-07,  avg # of iterations =  1.0

     total cpu time spent up to now is      506.1 secs

     total energy              =    -382.05304069 Ry
     estimated scf accuracy    <       0.00003717 Ry

     total magnetization       =     4.00 Bohr mag/cell
     absolute magnetization    =     4.14 Bohr mag/cell

     iteration # 72     ecut=   800.00 Ry     beta= 0.20
     Davidson diagonalization with overlap
     ethr =  8.08E-08,  avg # of iterations =  1.0

     total cpu time spent up to now is      512.8 secs

     total energy              =    -382.05304071 Ry
     estimated scf accuracy    <       0.00012483 Ry

     total magnetization       =     4.00 Bohr mag/cell
     absolute magnetization    =     4.14 Bohr mag/cell

     iteration # 73     ecut=   800.00 Ry     beta= 0.20
     Davidson diagonalization with overlap
     ethr =  8.08E-08,  avg # of iterations =  1.0

     total cpu time spent up to now is      519.4 secs

     total energy              =    -382.05304070 Ry
     estimated scf accuracy    <       0.00003161 Ry

     total magnetization       =     4.00 Bohr mag/cell
     absolute magnetization    =     4.14 Bohr mag/cell

     iteration # 74     ecut=   800.00 Ry     beta= 0.20
     Davidson diagonalization with overlap
     ethr =  6.87E-08,  avg # of iterations =  1.0

     total cpu time spent up to now is      526.0 secs

     total energy              =    -382.05304071 Ry
     estimated scf accuracy    <       0.00002222 Ry

     total magnetization       =     4.00 Bohr mag/cell
     absolute magnetization    =     4.14 Bohr mag/cell

     iteration # 75     ecut=   800.00 Ry     beta= 0.20
     Davidson diagonalization with overlap
     ethr =  4.83E-08,  avg # of iterations =  1.0

     total cpu time spent up to now is      532.7 secs

     total energy              =    -382.05304071 Ry
     estimated scf accuracy    <       0.00000376 Ry

     total magnetization       =     4.00 Bohr mag/cell
     absolute magnetization    =     4.14 Bohr mag/cell

     iteration # 76     ecut=   800.00 Ry     beta= 0.20
     Davidson diagonalization with overlap
     ethr =  8.17E-09,  avg # of iterations =  1.0

     total cpu time spent up to now is      539.3 secs

     total energy              =    -382.05304071 Ry
     estimated scf accuracy    <       0.00000072 Ry

     total magnetization       =     4.00 Bohr mag/cell
     absolute magnetization    =     4.14 Bohr mag/cell

     iteration # 77     ecut=   800.00 Ry     beta= 0.20
     Davidson diagonalization with overlap
     ethr =  1.57E-09,  avg # of iterations =  1.0

     total cpu time spent up to now is      545.9 secs

     total energy              =    -382.05304071 Ry
     estimated scf accuracy    <       0.00000011 Ry

     total magnetization       =     4.00 Bohr mag/cell
     absolute magnetization    =     4.14 Bohr mag/cell

     iteration # 78     ecut=   800.00 Ry     beta= 0.20
     Davidson diagonalization with overlap
     ethr =  2.34E-10,  avg # of iterations =  1.0

     total cpu time spent up to now is      552.5 secs

     total energy              =    -382.05304071 Ry
     estimated scf accuracy    <       0.00000177 Ry

     total magnetization       =     4.00 Bohr mag/cell
     absolute magnetization    =     4.14 Bohr mag/cell

     iteration # 79     ecut=   800.00 Ry     beta= 0.20
     Davidson diagonalization with overlap
     ethr =  2.34E-10,  avg # of iterations =  1.0

     total cpu time spent up to now is      559.1 secs

     total energy              =    -382.05304071 Ry
     estimated scf accuracy    <       0.00000072 Ry

     total magnetization       =     4.00 Bohr mag/cell
     absolute magnetization    =     4.14 Bohr mag/cell

     iteration # 80     ecut=   800.00 Ry     beta= 0.20
     Davidson diagonalization with overlap
     ethr =  2.34E-10,  avg # of iterations =  1.0

     total cpu time spent up to now is      565.7 secs

     total energy              =    -382.05304071 Ry
     estimated scf accuracy    <       0.00000005 Ry

     total magnetization       =     4.00 Bohr mag/cell
     absolute magnetization    =     4.14 Bohr mag/cell

     iteration # 81     ecut=   800.00 Ry     beta= 0.20
     Davidson diagonalization with overlap
     ethr =  1.15E-10,  avg # of iterations =  1.0

     total cpu time spent up to now is      572.4 secs

     total energy              =    -382.05304071 Ry
     estimated scf accuracy    <       0.00000003 Ry

     total magnetization       =     4.00 Bohr mag/cell
     absolute magnetization    =     4.14 Bohr mag/cell

     iteration # 82     ecut=   800.00 Ry     beta= 0.20
     Davidson diagonalization with overlap
     ethr =  7.43E-11,  avg # of iterations =  1.0

     total cpu time spent up to now is      579.0 secs

     total energy              =    -382.05304071 Ry
     estimated scf accuracy    <       0.00000001 Ry

     total magnetization       =     4.00 Bohr mag/cell
     absolute magnetization    =     4.14 Bohr mag/cell

     iteration # 83     ecut=   800.00 Ry     beta= 0.20
     Davidson diagonalization with overlap
     ethr =  2.26E-11,  avg # of iterations =  1.0

     total cpu time spent up to now is      585.6 secs

     total energy              =    -382.05304071 Ry
     estimated scf accuracy    <          3.5E-10 Ry

     total magnetization       =     4.00 Bohr mag/cell
     absolute magnetization    =     4.14 Bohr mag/cell

     iteration # 84     ecut=   800.00 Ry     beta= 0.20
     Davidson diagonalization with overlap
     ethr =  7.65E-13,  avg # of iterations =  1.0

     total cpu time spent up to now is      592.2 secs

     total energy              =    -382.05304071 Ry
     estimated scf accuracy    <          8.0E-10 Ry

     total magnetization       =     4.00 Bohr mag/cell
     absolute magnetization    =     4.14 Bohr mag/cell

     iteration # 85     ecut=   800.00 Ry     beta= 0.20
     Davidson diagonalization with overlap
     ethr =  7.65E-13,  avg # of iterations =  1.0

     total cpu time spent up to now is      598.8 secs

     total energy              =    -382.05304071 Ry
     estimated scf accuracy    <       0.00000002 Ry

     total magnetization       =     4.00 Bohr mag/cell
     absolute magnetization    =     4.14 Bohr mag/cell

     iteration # 86     ecut=   800.00 Ry     beta= 0.20
     Davidson diagonalization with overlap
     ethr =  7.65E-13,  avg # of iterations =  1.0

     total cpu time spent up to now is      605.4 secs

     total energy              =    -382.05304071 Ry
     estimated scf accuracy    <       0.00000002 Ry

     total magnetization       =     4.00 Bohr mag/cell
     absolute magnetization    =     4.14 Bohr mag/cell

     iteration # 87     ecut=   800.00 Ry     beta= 0.20
     Davidson diagonalization with overlap
     ethr =  7.65E-13,  avg # of iterations =  1.0

     total cpu time spent up to now is      612.0 secs

     total energy              =    -382.05304071 Ry
     estimated scf accuracy    <       0.00000001 Ry

     total magnetization       =     4.00 Bohr mag/cell
     absolute magnetization    =     4.14 Bohr mag/cell

     iteration # 88     ecut=   800.00 Ry     beta= 0.20
     Davidson diagonalization with overlap
     ethr =  7.65E-13,  avg # of iterations =  1.0

     total cpu time spent up to now is      618.6 secs

     total energy              =    -382.05304071 Ry
     estimated scf accuracy    <       0.00000001 Ry

     total magnetization       =     4.00 Bohr mag/cell
     absolute magnetization    =     4.14 Bohr mag/cell

     iteration # 89     ecut=   800.00 Ry     beta= 0.20
     Davidson diagonalization with overlap
     ethr =  7.65E-13,  avg # of iterations =  1.0

     total cpu time spent up to now is      625.2 secs

     total energy              =    -382.05304071 Ry
     estimated scf accuracy    <          7.5E-09 Ry

     total magnetization       =     4.00 Bohr mag/cell
     absolute magnetization    =     4.14 Bohr mag/cell

     iteration # 90     ecut=   800.00 Ry     beta= 0.20
     Davidson diagonalization with overlap
     ethr =  7.65E-13,  avg # of iterations =  1.0

     total cpu time spent up to now is      631.9 secs

     total energy              =    -382.05304071 Ry
     estimated scf accuracy    <          5.7E-09 Ry

     total magnetization       =     4.00 Bohr mag/cell
     absolute magnetization    =     4.14 Bohr mag/cell

     iteration # 91     ecut=   800.00 Ry     beta= 0.20
     Davidson diagonalization with overlap
     ethr =  7.65E-13,  avg # of iterations =  1.0

     total cpu time spent up to now is      638.5 secs

     total energy              =    -382.05304071 Ry
     estimated scf accuracy    <          9.0E-10 Ry

     total magnetization       =     4.00 Bohr mag/cell
     absolute magnetization    =     4.14 Bohr mag/cell

     iteration # 92     ecut=   800.00 Ry     beta= 0.20
     Davidson diagonalization with overlap
     ethr =  7.65E-13,  avg # of iterations =  1.0

     total cpu time spent up to now is      645.1 secs

     total energy              =    -382.05304071 Ry
     estimated scf accuracy    <          1.4E-09 Ry

     total magnetization       =     4.00 Bohr mag/cell
     absolute magnetization    =     4.14 Bohr mag/cell

     iteration # 93     ecut=   800.00 Ry     beta= 0.20
     Davidson diagonalization with overlap
     ethr =  7.65E-13,  avg # of iterations =  1.0

     total cpu time spent up to now is      651.7 secs

     total energy              =    -382.05304071 Ry
     estimated scf accuracy    <          2.3E-10 Ry

     total magnetization       =     4.00 Bohr mag/cell
     absolute magnetization    =     4.14 Bohr mag/cell

     iteration # 94     ecut=   800.00 Ry     beta= 0.20
     Davidson diagonalization with overlap
     ethr =  4.89E-13,  avg # of iterations =  1.0

     total cpu time spent up to now is      658.3 secs

     total energy              =    -382.05304071 Ry
     estimated scf accuracy    <          1.3E-10 Ry

     total magnetization       =     4.00 Bohr mag/cell
     absolute magnetization    =     4.14 Bohr mag/cell

     iteration # 95     ecut=   800.00 Ry     beta= 0.20
     Davidson diagonalization with overlap
     ethr =  2.90E-13,  avg # of iterations =  1.0
 
     Magnetic moment per site:
     atom:    1    charge:   13.4810    magn:    3.5173    constr:    0.0000
     atom:    2    charge:    0.2496    magn:   -0.0018    constr:    0.0000
     atom:    3    charge:    0.2496    magn:   -0.0018    constr:    0.0000
     atom:    4    charge:    0.2496    magn:   -0.0018    constr:    0.0000
     atom:    5    charge:    5.8720    magn:   -0.0039    constr:    0.0000
     atom:    6    charge:    5.8610    magn:    0.1112    constr:    0.0000
     atom:    7    charge:    5.8610    magn:    0.1112    constr:    0.0000
     atom:    8    charge:    5.8610    magn:    0.1112    constr:    0.0000

     total cpu time spent up to now is      664.8 secs

     End of self-consistent calculation

 ------ SPIN UP ------------


          k = 0.0000 0.0000 0.0000 (192431 PWs)   bands (ev):

   -83.8669 -47.9730 -47.9730 -47.9730 -11.7997 -10.5217 -10.5217 -10.2100
     2.7532   2.7532   2.7532   5.4285   5.4285   5.4285   5.5273   5.5273
     5.5273   6.2312   6.2312   6.2312   6.5065   6.5065   6.8710   6.8710
     6.8710  12.1389  17.1139  18.1404  18.1404  18.3462  18.3462  18.3462

     occupation numbers 
     1.0000   1.0000   1.0000   1.0000   1.0000   1.0000   1.0000   1.0000
     1.0000   1.0000   1.0000   1.0000   1.0000   1.0000   1.0000   1.0000
     1.0000   1.0000   1.0000   1.0000   1.0000   1.0000   1.0000   1.0000
     1.0000   0.0000   0.0000   0.0000   0.0000   0.0000   0.0000   0.0000

          k = 0.0000 0.0000-0.5000 (192616 PWs)   bands (ev):

   -83.8669 -47.9737 -47.9730 -47.9730 -11.1899 -11.0205 -10.4788 -10.2094
     2.8928   3.5728   3.5728   3.8436   3.8436   4.1965   4.8879   5.0398
     5.8060   5.8060   6.0212   6.0212   6.2495   6.5093   7.3840   7.3840
     8.1673  15.7400  15.9159  19.3883  19.6268  19.6268  19.8972  20.5439

     occupation numbers 
     1.0000   1.0000   1.0000   1.0000   1.0000   1.0000   1.0000   1.0000
     1.0000   1.0000   1.0000   1.0000   1.0000   1.0000   1.0000   1.0000
     1.0000   1.0000   1.0000   1.0000   1.0000   1.0000   1.0000   1.0000
     1.0000   0.0000   0.0000   0.0000   0.0000   0.0000   0.0000   0.0000

          k = 0.0000-0.5000-0.5000 (192516 PWs)   bands (ev):

   -83.8669 -47.9737 -47.9737 -47.9729 -10.8002 -10.7073 -10.7073 -10.4591
     2.4691   2.7858   3.3120   3.4302   3.4302   4.1537   4.1537   4.7792
     5.0323   6.1329   6.2581   6.2581   7.1494   7.2841   7.2841   7.4037
     9.9678  17.2427  17.3204  17.3204  17.5769  19.6237  20.0451  20.6985

     occupation numbers 
     1.0000   1.0000   1.0000   1.0000   1.0000   1.0000   1.0000   1.0000
     1.0000   1.0000   1.0000   1.0000   1.0000   1.0000   1.0000   1.0000
     1.0000   1.0000   1.0000   1.0000   1.0000   1.0000   1.0000   1.0000
     1.0000   0.0000   0.0000   0.0000   0.0000   0.0000   0.0000   0.0000

          k =-0.5000-0.5000-0.5000 (192672 PWs)   bands (ev):

   -83.8669 -47.9736 -47.9736 -47.9736 -10.6503 -10.6503 -10.6503 -10.3989
     1.8980   1.9601   1.9601   1.9601   3.3102   3.3102   5.8124   5.8124
     5.8124   6.1286   6.1286   6.1286   7.6536   7.6536   7.6536   9.9645
     9.9645  15.6927  15.6927  15.6927  15.8977  20.0478  21.1119  21.1119

     occupation numbers 
     1.0000   1.0000   1.0000   1.0000   1.0000   1.0000   1.0000   1.0000
     1.0000   1.0000   1.0000   1.0000   1.0000   1.0000   1.0000   1.0000
     1.0000   1.0000   1.0000   1.0000   1.0000   1.0000   1.0000   1.0000
     1.0000   0.0000   0.0000   0.0000   0.0000   0.0000   0.0000   0.0000

 ------ SPIN DOWN ----------


          k = 0.0000 0.0000 0.0000 (192431 PWs)   bands (ev):

   -77.9266 -42.0046 -42.0046 -42.0046 -11.6472 -10.2636 -10.2636 -10.1639
     2.8823   2.8823   2.8823   5.6319   5.6319   5.6319   5.6908   5.6908
     5.6908   7.0595   7.0595   7.0595  10.6169  10.6169  10.6169  12.4814
    13.0722  13.0722  18.1877  18.1877  18.3082  18.8559  18.8559  18.8559

     occupation numbers 
     1.0000   1.0000   1.0000   1.0000   1.0000   1.0000   1.0000   1.0000
     1.0000   1.0000   1.0000   1.0000   1.0000   1.0000   1.0000   1.0000
     1.0000   1.0000   1.0000   1.0000   1.0000   1.0000   1.0000   0.0000
     0.0000   0.0000   0.0000   0.0000   0.0000   0.0000   0.0000   0.0000

          k = 0.0000 0.0000-0.5000 (192616 PWs)   bands (ev):

   -77.9265 -42.0062 -42.0046 -42.0046 -10.9713 -10.8973 -10.2193 -10.1118
     3.8911   3.8911   3.9658   4.0558   4.0558   4.3658   5.0467   5.2286
     6.2012   6.2012   6.2862   6.2862  10.6979  11.5802  11.5802  13.0878
    13.5951  16.0545  16.6767  19.3813  19.8739  19.8739  20.4931  20.7726

     occupation numbers 
     1.0000   1.0000   1.0000   1.0000   1.0000   1.0000   1.0000   1.0000
     1.0000   1.0000   1.0000   1.0000   1.0000   1.0000   1.0000   1.0000
     1.0000   1.0000   1.0000   1.0000   1.0000   0.2053   0.2053   0.0000
     0.0000   0.0000   0.0000   0.0000   0.0000   0.0000   0.0000   0.0000

          k = 0.0000-0.5000-0.5000 (192516 PWs)   bands (ev):

   -77.9265 -42.0061 -42.0061 -42.0045 -10.5614 -10.4799 -10.4799 -10.4654
     3.1720   3.2294   3.5103   3.5103   4.7558   4.7558   5.0272   5.0609
     5.1920   6.3678   6.3678   6.3690  11.5948  11.5948  11.9890  13.2895
    15.2757  17.5703  17.5703  17.7020  17.8207  19.9758  20.0334  21.0409

     occupation numbers 
     1.0000   1.0000   1.0000   1.0000   1.0000   1.0000   1.0000   1.0000
     1.0000   1.0000   1.0000   1.0000   1.0000   1.0000   1.0000   1.0000
     1.0000   1.0000   1.0000   1.0000   0.1281   0.1281   0.0000   0.0000
     0.0000   0.0000   0.0000   0.0000   0.0000   0.0000   0.0000   0.0000

          k =-0.5000-0.5000-0.5000 (192672 PWs)   bands (ev):

   -77.9265 -42.0061 -42.0061 -42.0061 -10.4208 -10.4208 -10.4208 -10.4053
     2.2155   2.2155   2.2155   2.2514   5.1888   5.1888   6.2450   6.2450
     6.2450   6.3648   6.3648   6.3648  12.0099  12.0099  12.0099  15.2749
    15.2749  15.8832  15.9074  15.9074  15.9074  20.9698  21.3034  21.3034

     occupation numbers 
     1.0000   1.0000   1.0000   1.0000   1.0000   1.0000   1.0000   1.0000
     1.0000   1.0000   1.0000   1.0000   1.0000   1.0000   1.0000   1.0000
     1.0000   1.0000   1.0000   1.0000   0.0000   0.0000   0.0000   0.0000
     0.0000   0.0000   0.0000   0.0000   0.0000   0.0000   0.0000   0.0000

     the spin up/dw Fermi energies are    11.4857   11.5453 ev

!    total energy              =    -382.05304071 Ry
     estimated scf accuracy    <          9.3E-11 Ry
     smearing contrib. (-TS)   =      -0.00126869 Ry
     internal energy E=F+TS    =    -382.05177202 Ry

     The total energy is F=E-TS. E is the sum of the following terms:
     one-electron contribution =    -240.00322639 Ry
     hartree contribution      =     146.98345679 Ry
     xc contribution           =     -58.54401406 Ry
     ewald contribution        =    -230.48798836 Ry

     total magnetization       =     4.00 Bohr mag/cell
     absolute magnetization    =     4.14 Bohr mag/cell

     convergence has been achieved in  95 iterations
     Writing meta-gga kinetic term

     Writing output data file pwscf_output/pwscf.save/
     Writing meta-gga kinetic term
 
     init_run     :      4.77s CPU      5.59s WALL (       1 calls)
     electrons    :    649.23s CPU    658.49s WALL (       1 calls)

     Called by init_run:
     wfcinit      :      3.97s CPU      4.53s WALL (       1 calls)
     wfcinit:atom :      0.02s CPU      0.03s WALL (       8 calls)
     wfcinit:wfcr :      3.88s CPU      4.43s WALL (       8 calls)
     potinit      :      0.19s CPU      0.27s WALL (       1 calls)
     hinit0       :      0.09s CPU      0.24s WALL (       1 calls)

     Called by electrons:
     c_bands      :    491.30s CPU    495.49s WALL (      95 calls)
     sum_band     :    134.23s CPU    135.55s WALL (      95 calls)
     v_of_rho     :     12.11s CPU     13.25s WALL (      96 calls)
     v_h          :      0.39s CPU      0.42s WALL (      96 calls)
     v_xc_meta    :     11.72s CPU     12.83s WALL (      96 calls)
     mix_rho      :     10.75s CPU     12.01s WALL (      95 calls)

     Called by c_bands:
     init_us_2    :      1.61s CPU      1.64s WALL (    1528 calls)
     cegterg      :    487.00s CPU    491.06s WALL (     760 calls)

     Called by sum_band:
     sum_band:wei :      0.01s CPU      0.01s WALL (      95 calls)
     sum_band:loo :    130.59s CPU    131.61s WALL (      95 calls)
     sum_band:buf :      1.09s CPU      1.12s WALL (     760 calls)
     sum_band:ini :      0.81s CPU      0.81s WALL (     760 calls)

     Called by *egterg:
     cdiaghg      :      7.53s CPU      7.83s WALL (    1853 calls)
     cegterg:over :     11.08s CPU     11.14s WALL (    1093 calls)
     cegterg:upda :      7.22s CPU      7.26s WALL (    1093 calls)
     cegterg:last :      4.67s CPU      4.71s WALL (     887 calls)
     cdiaghg:chol :      0.52s CPU      0.57s WALL (    1853 calls)
     cdiaghg:inve :      0.09s CPU      0.10s WALL (    1853 calls)
     cdiaghg:para :      0.51s CPU      0.51s WALL (    3706 calls)
     h_psi        :    455.05s CPU    459.20s WALL (    1861 calls)
     g_psi        :      0.51s CPU      0.52s WALL (    1093 calls)

     Called by h_psi:
     h_psi:calbec :      2.66s CPU      2.92s WALL (    1861 calls)
     vloc_psi     :    109.73s CPU    110.69s WALL (    1861 calls)
     add_vuspsi   :      3.64s CPU      3.67s WALL (    1861 calls)
     h_psi_meta   :    337.05s CPU    339.94s WALL (    1861 calls)

     General routines
     calbec       :      2.65s CPU      2.91s WALL (    1861 calls)
     fft          :      5.23s CPU      6.16s WALL (    2201 calls)
     ffts         :      0.79s CPU      0.91s WALL (     380 calls)
     fftw         :    474.85s CPU    478.90s WALL (  509744 calls)
     interpolate  :      0.05s CPU      0.06s WALL (     192 calls)
 
     Parallel routines
     fft_scatt_xy :     69.54s CPU     70.12s WALL (  512325 calls)
     fft_scatt_yz :    240.86s CPU    243.88s WALL (  512325 calls)
 
     PWSCF        :  10m54.60s CPU  11m33.40s WALL

 
   This run was terminated on:   7: 5:22  19Nov2021            

=------------------------------------------------------------------------------=
   JOB DONE.
=------------------------------------------------------------------------------=
