
     Program PWSCF v.5.3.0 (svn rev. 11974) starts on 25Aug2017 at  9:41:35 

     This program is part of the open-source Quantum ESPRESSO suite
     for quantum simulation of materials; please cite
         "P. Giannozzi et al., J. Phys.:Condens. Matter 21 395502 (2009);
          URL http://www.quantum-espresso.org", 
     in publications or presentations arising from this work. More details at
     http://www.quantum-espresso.org/quote

     Parallel version (MPI), running on    36 processors
     R & G space division:  proc/nbgrp/npool/nimage =      36
     Reading input from scf.in
     Message from routine read_cards :
     DEPRECATED: no units specified in CELL_PARAMETERS card

     Current dimensions of program PWSCF are:
     Max number of different atomic species (ntypx) = 10
     Max number of k-points (npk) =  40000
     Max angular momentum in pseudopotentials (lmaxx) =  3

     IMPORTANT: XC functional enforced from input :
     Exchange-correlation      = PBE ( 1  4  3  4 0 0)
     Any further DFT definition will be discarded
     Please, verify this is what you really want


     Subspace diagonalization in iterative solution of the eigenvalue problem:
     a serial algorithm will be used

 
     Parallelization info
     --------------------
     sticks:   dense  smooth     PW     G-vecs:    dense   smooth      PW
     Min         191     191     53                 7038     7038    1045
     Max         192     192     54                 7041     7041    1049
     Sum        6909    6909   1937               253439   253439   37699
 
     Generating pointlists ...
     new r_m :   0.4125 (alat units)  0.4125 (a.u.) for type    1
     new r_m :   0.4125 (alat units)  0.4125 (a.u.) for type    2
     new r_m :   0.4125 (alat units)  0.4125 (a.u.) for type    3


     bravais-lattice index     =            0
     lattice parameter (alat)  =       1.0000  a.u.
     unit-cell volume          =     274.6840 (a.u.)^3
     number of atoms/cell      =            4
     number of atomic types    =            3
     number of electrons       =        44.00 (up:  22.00, down:  22.00)
     number of Kohn-Sham states=           32
     kinetic-energy cutoff     =     360.0000  Ry
     charge density cutoff     =    1440.0000  Ry
     convergence threshold     =      1.0E-10
     mixing beta               =       0.3000
     number of iterations used =            8  plain     mixing
     Exchange-correlation      = PBE ( 1  4  3  4 0 0)

     celldm(1)=   1.000000  celldm(2)=   0.000000  celldm(3)=   0.000000
     celldm(4)=   0.000000  celldm(5)=   0.000000  celldm(6)=   0.000000

     crystal axes: (cart. coord. in units of alat)
               a(1) = (   9.005087   5.252967   5.252967 )  
               a(2) = (   5.252967   9.005087   5.252967 )  
               a(3) = (   5.252967   5.252967   9.005087 )  

     reciprocal axes: (cart. coord. in units 2 pi/alat)
               b(1) = (  0.194762 -0.071754 -0.071754 )  
               b(2) = ( -0.071754  0.194762 -0.071754 )  
               b(3) = ( -0.071754 -0.071754  0.194762 )  


     PseudoPot. # 1 for Fe read from file:
     ../Fe.opt.upf
     MD5 check sum: 0a1f874e4978502669d7d49c3d82089b
     Pseudo is Norm-conserving, Zval = 16.0
     Generated by new atomic code, or converted to UPF format
     Using radial grid of 1160 points,  2 beta functions with: 
                l(1) =   0
                l(2) =   2

     PseudoPot. # 2 for Fe read from file:
     ../Fe.opt.upf
     MD5 check sum: 0a1f874e4978502669d7d49c3d82089b
     Pseudo is Norm-conserving, Zval = 16.0
     Generated by new atomic code, or converted to UPF format
     Using radial grid of 1160 points,  2 beta functions with: 
                l(1) =   0
                l(2) =   2

     PseudoPot. # 3 for O  read from file:
     ../O.opt.upf
     MD5 check sum: 0b670aeee1f35195f09134313df81f8f
     Pseudo is Norm-conserving, Zval =  6.0
     Generated by new atomic code, or converted to UPF format
     Using radial grid of 1130 points,  1 beta functions with: 
                l(1) =   1

     atomic species   valence    mass     pseudopotential
        Fe1           16.00    55.84500     Fe( 1.00)
        Fe2           16.00    55.84500     Fe( 1.00)
        O              6.00    15.99900     O ( 1.00)

     Starting magnetic structure 
     atomic species   magnetization
        Fe1         -0.500
        Fe2          0.500
        O            0.000


     Full LDA+U calculation (l_max = 2) with parameters (eV):
     U(  1) =   4.3000   J(  1) =   0.0000   B(  1) =   0.0000
     U(  2) =   4.3000   J(  2) =   0.0000   B(  2) =   0.0000



     12 Sym. Ops., with inversion, found


                                    s                        frac. trans.

      isym =  1     identity                                     

 cryst.   s( 1) = (     1          0          0      )
                  (     0          1          0      )
                  (     0          0          1      )

 cart.    s( 1) = (  1.0000000 -0.0000000  0.0000000 )
                  ( -0.0000000  1.0000000  0.0000000 )
                  ( -0.0000000 -0.0000000  1.0000000 )


      isym =  2     180 deg rotation - cart. axis [1,-1,0]       

 cryst.   s( 2) = (     0         -1          0      )
                  (    -1          0          0      )
                  (     0          0         -1      )

 cart.    s( 2) = (  0.0000000 -1.0000000  0.0000000 )
                  ( -1.0000000  0.0000000  0.0000000 )
                  (  0.0000000  0.0000000 -1.0000000 )


      isym =  3     180 deg rotation - cart. axis [-1,0,1]       

 cryst.   s( 3) = (     0          0         -1      )
                  (     0         -1          0      )
                  (    -1          0          0      )

 cart.    s( 3) = (  0.0000000  0.0000000 -1.0000000 )
                  (  0.0000000 -1.0000000  0.0000000 )
                  ( -1.0000000  0.0000000  0.0000000 )


      isym =  4     180 deg rotation - cart. axis [0,1,-1]       

 cryst.   s( 4) = (    -1          0          0      )
                  (     0          0         -1      )
                  (     0         -1          0      )

 cart.    s( 4) = ( -1.0000000  0.0000000  0.0000000 )
                  (  0.0000000  0.0000000 -1.0000000 )
                  (  0.0000000 -1.0000000  0.0000000 )


      isym =  5     120 deg rotation - cart. axis [-1,-1,-1]     

 cryst.   s( 5) = (     0          0          1      )
                  (     1          0          0      )
                  (     0          1          0      )

 cart.    s( 5) = (  0.0000000  1.0000000 -0.0000000 )
                  (  0.0000000 -0.0000000  1.0000000 )
                  (  1.0000000 -0.0000000 -0.0000000 )


      isym =  6     120 deg rotation - cart. axis [1,1,1]        

 cryst.   s( 6) = (     0          1          0      )
                  (     0          0          1      )
                  (     1          0          0      )

 cart.    s( 6) = ( -0.0000000  0.0000000  1.0000000 )
                  (  1.0000000  0.0000000 -0.0000000 )
                  ( -0.0000000  1.0000000 -0.0000000 )


      isym =  7     inversion                                    

 cryst.   s( 7) = (    -1          0          0      )
                  (     0         -1          0      )
                  (     0          0         -1      )

 cart.    s( 7) = ( -1.0000000  0.0000000  0.0000000 )
                  (  0.0000000 -1.0000000  0.0000000 )
                  (  0.0000000  0.0000000 -1.0000000 )


      isym =  8     inv. 180 deg rotation - cart. axis [1,-1,0]  

 cryst.   s( 8) = (     0          1          0      )
                  (     1          0          0      )
                  (     0          0          1      )

 cart.    s( 8) = ( -0.0000000  1.0000000  0.0000000 )
                  (  1.0000000 -0.0000000  0.0000000 )
                  ( -0.0000000 -0.0000000  1.0000000 )


      isym =  9     inv. 180 deg rotation - cart. axis [-1,0,1]  

 cryst.   s( 9) = (     0          0          1      )
                  (     0          1          0      )
                  (     1          0          0      )

 cart.    s( 9) = (  0.0000000 -0.0000000  1.0000000 )
                  (  0.0000000  1.0000000 -0.0000000 )
                  (  1.0000000 -0.0000000 -0.0000000 )


      isym = 10     inv. 180 deg rotation - cart. axis [0,1,-1]  

 cryst.   s(10) = (     1          0          0      )
                  (     0          0          1      )
                  (     0          1          0      )

 cart.    s(10) = (  1.0000000  0.0000000 -0.0000000 )
                  ( -0.0000000  0.0000000  1.0000000 )
                  ( -0.0000000  1.0000000 -0.0000000 )


      isym = 11     inv. 120 deg rotation - cart. axis [-1,-1,-1]

 cryst.   s(11) = (     0          0         -1      )
                  (    -1          0          0      )
                  (     0         -1          0      )

 cart.    s(11) = (  0.0000000 -1.0000000  0.0000000 )
                  (  0.0000000  0.0000000 -1.0000000 )
                  ( -1.0000000  0.0000000  0.0000000 )


      isym = 12     inv. 120 deg rotation - cart. axis [1,1,1]   

 cryst.   s(12) = (     0         -1          0      )
                  (     0          0         -1      )
                  (    -1          0          0      )

 cart.    s(12) = (  0.0000000  0.0000000 -1.0000000 )
                  ( -1.0000000  0.0000000  0.0000000 )
                  (  0.0000000 -1.0000000  0.0000000 )


   Cartesian axes

     site n.     atom                  positions (alat units)
         1           Fe1 tau(   1) = (   0.0000000   0.0000000   0.0000000  )
         2           Fe2 tau(   2) = (   9.7555107   9.7555107   9.7555107  )
         3           O   tau(   3) = (   4.8777554   4.8777554   4.8777554  )
         4           O   tau(   4) = (  14.6332661  14.6332661  14.6332661  )

   Crystallographic axes

     site n.     atom                  positions (cryst. coord.)
         1           Fe1 tau(   1) = (  0.0000000  0.0000000  0.0000000  )
         2           Fe2 tau(   2) = (  0.5000000  0.5000000  0.5000000  )
         3           O   tau(   3) = (  0.2500000  0.2500000  0.2500000  )
         4           O   tau(   4) = (  0.7500000  0.7500000  0.7500000  )

     number of k points=    28  Fermi-Dirac smearing, width (Ry)=  0.0010
                       cart. coord. in units 2pi/alat
        k(    1) = (   0.0042711   0.0042711   0.0042711), wk =   0.0092593
        k(    2) = (  -0.0076880  -0.0076880   0.0367314), wk =   0.0277778
        k(    3) = (  -0.0196470  -0.0196470   0.0691917), wk =   0.0277778
        k(    4) = (   0.0401482   0.0401482  -0.0931098), wk =   0.0277778
        k(    5) = (   0.0281892   0.0281892  -0.0606495), wk =   0.0277778
        k(    6) = (   0.0162301   0.0162301  -0.0281892), wk =   0.0277778
        k(    7) = (  -0.0196470   0.0247723   0.0247723), wk =   0.0277778
        k(    8) = (  -0.0316061   0.0128133   0.0572326), wk =   0.0555556
        k(    9) = (   0.0281892   0.0726085  -0.1050688), wk =   0.0555556
        k(   10) = (   0.0162301   0.0606495  -0.0726085), wk =   0.0555556
        k(   11) = (   0.0042711   0.0486904  -0.0401482), wk =   0.0555556
        k(   12) = (  -0.0435651   0.0452736   0.0452736), wk =   0.0277778
        k(   13) = (   0.0162301   0.1050688  -0.1170279), wk =   0.0555556
        k(   14) = (   0.0042711   0.0931098  -0.0845676), wk =   0.0555556
        k(   15) = (  -0.0076880   0.0811507  -0.0521073), wk =   0.0555556
        k(   16) = (   0.0760254  -0.0572326  -0.0572326), wk =   0.0277778
        k(   17) = (   0.0640664  -0.0691917  -0.0247723), wk =   0.0555556
        k(   18) = (   0.0521073  -0.0367314  -0.0367314), wk =   0.0277778
        k(   19) = (   0.0128133   0.0128133   0.0128133), wk =   0.0092593
        k(   20) = (   0.0008542   0.0008542   0.0452736), wk =   0.0277778
        k(   21) = (   0.0606495   0.0606495  -0.1170279), wk =   0.0277778
        k(   22) = (   0.0486904   0.0486904  -0.0845676), wk =   0.0277778
        k(   23) = (  -0.0111048   0.0333145   0.0333145), wk =   0.0277778
        k(   24) = (   0.0486904   0.0931098  -0.1289869), wk =   0.0555556
        k(   25) = (   0.0367314   0.0811507  -0.0965266), wk =   0.0555556
        k(   26) = (   0.1084857  -0.0691917  -0.0691917), wk =   0.0277778
        k(   27) = (   0.0213555   0.0213555   0.0213555), wk =   0.0092593
        k(   28) = (   0.0811507   0.0811507  -0.1409460), wk =   0.0277778

                       cryst. coord.
        k(    1) = (   0.0833333   0.0833333   0.0833333), wk =   0.0092593
        k(    2) = (   0.0833333   0.0833333   0.2500000), wk =   0.0277778
        k(    3) = (   0.0833333   0.0833333   0.4166667), wk =   0.0277778
        k(    4) = (   0.0833333   0.0833333  -0.4166667), wk =   0.0277778
        k(    5) = (   0.0833333   0.0833333  -0.2500000), wk =   0.0277778
        k(    6) = (   0.0833333   0.0833333  -0.0833333), wk =   0.0277778
        k(    7) = (   0.0833333   0.2500000   0.2500000), wk =   0.0277778
        k(    8) = (   0.0833333   0.2500000   0.4166667), wk =   0.0555556
        k(    9) = (   0.0833333   0.2500000  -0.4166667), wk =   0.0555556
        k(   10) = (   0.0833333   0.2500000  -0.2500000), wk =   0.0555556
        k(   11) = (   0.0833333   0.2500000  -0.0833333), wk =   0.0555556
        k(   12) = (   0.0833333   0.4166667   0.4166667), wk =   0.0277778
        k(   13) = (   0.0833333   0.4166667  -0.4166667), wk =   0.0555556
        k(   14) = (   0.0833333   0.4166667  -0.2500000), wk =   0.0555556
        k(   15) = (   0.0833333   0.4166667  -0.0833333), wk =   0.0555556
        k(   16) = (   0.0833333  -0.4166667  -0.4166667), wk =   0.0277778
        k(   17) = (   0.0833333  -0.4166667  -0.2500000), wk =   0.0555556
        k(   18) = (   0.0833333  -0.2500000  -0.2500000), wk =   0.0277778
        k(   19) = (   0.2500000   0.2500000   0.2500000), wk =   0.0092593
        k(   20) = (   0.2500000   0.2500000   0.4166667), wk =   0.0277778
        k(   21) = (   0.2500000   0.2500000  -0.4166667), wk =   0.0277778
        k(   22) = (   0.2500000   0.2500000  -0.2500000), wk =   0.0277778
        k(   23) = (   0.2500000   0.4166667   0.4166667), wk =   0.0277778
        k(   24) = (   0.2500000   0.4166667  -0.4166667), wk =   0.0555556
        k(   25) = (   0.2500000   0.4166667  -0.2500000), wk =   0.0555556
        k(   26) = (   0.2500000  -0.4166667  -0.4166667), wk =   0.0277778
        k(   27) = (   0.4166667   0.4166667   0.4166667), wk =   0.0092593
        k(   28) = (   0.4166667   0.4166667  -0.4166667), wk =   0.0277778

     Dense  grid:   253439 G-vectors     FFT dimensions: ( 144, 144, 144)

     Largest allocated arrays     est. size (Mb)     dimensions
        Kohn-Sham Wavefunctions         0.44 Mb     (     892,   32)
        Atomic Hubbard wavefuncts       0.14 Mb     (     892,   10)
        NL pseudopotentials             0.24 Mb     (     892,   18)
        Each V/rho on FFT grid          2.53 Mb     (   82944,   2)
        Each G-vector array             0.05 Mb     (    7041)
        G-vector shells                 0.04 Mb     (    5697)
     Largest temporary arrays     est. size (Mb)     dimensions
        Auxiliary wavefunctions         1.74 Mb     (     892,  128)
        Each subspace H/S matrix        0.25 Mb     (     128,  128)
        Each <psi_i|beta_j> matrix      0.01 Mb     (      18,   32)
        Arrays for rho mixing          10.12 Mb     (   82944,    8)

     Initial potential from superposition of free atoms

     starting charge   36.00000, renormalised to   44.00000
 --- in v_hubbard ---
Hubbard energies (dc, U, total)    9.4813   9.7342   0.2528
 -------
     Number of +U iterations with fixed ns =  0
     Starting occupations:
 --- enter write_ns ---
 LDA+U parameters:
U(  1) =   4.3000   J(  1) =   0.0000   B(  1) =   0.0000
U(  2) =   4.3000   J(  2) =   0.0000   B(  2) =   0.0000
atom    1   Tr[ns(na)] (up, down, total) =   1.00000  5.00000  6.00000
   spin  1
    eigenvalues: 
  0.200  0.200  0.200  0.200  0.200
    eigenvectors:
  1.000  0.000  0.000  0.000  0.000
  0.000  1.000  0.000  0.000  0.000
  0.000  0.000  1.000  0.000  0.000
  0.000  0.000  0.000  1.000  0.000
  0.000  0.000  0.000  0.000  1.000
    occupations:
  0.200  0.000  0.000  0.000  0.000
  0.000  0.200  0.000  0.000  0.000
  0.000  0.000  0.200  0.000  0.000
  0.000  0.000  0.000  0.200  0.000
  0.000  0.000  0.000  0.000  0.200
   spin  2
    eigenvalues: 
  1.000  1.000  1.000  1.000  1.000
    eigenvectors:
  1.000  0.000  0.000  0.000  0.000
  0.000  1.000  0.000  0.000  0.000
  0.000  0.000  1.000  0.000  0.000
  0.000  0.000  0.000  1.000  0.000
  0.000  0.000  0.000  0.000  1.000
    occupations:
  1.000  0.000  0.000  0.000  0.000
  0.000  1.000  0.000  0.000  0.000
  0.000  0.000  1.000  0.000  0.000
  0.000  0.000  0.000  1.000  0.000
  0.000  0.000  0.000  0.000  1.000
atomic mag. moment =    -4.000000
atom    2   Tr[ns(na)] (up, down, total) =   5.00000  1.00000  6.00000
   spin  1
    eigenvalues: 
  1.000  1.000  1.000  1.000  1.000
    eigenvectors:
  1.000  0.000  0.000  0.000  0.000
  0.000  1.000  0.000  0.000  0.000
  0.000  0.000  1.000  0.000  0.000
  0.000  0.000  0.000  1.000  0.000
  0.000  0.000  0.000  0.000  1.000
    occupations:
  1.000  0.000  0.000  0.000  0.000
  0.000  1.000  0.000  0.000  0.000
  0.000  0.000  1.000  0.000  0.000
  0.000  0.000  0.000  1.000  0.000
  0.000  0.000  0.000  0.000  1.000
   spin  2
    eigenvalues: 
  0.200  0.200  0.200  0.200  0.200
    eigenvectors:
  1.000  0.000  0.000  0.000  0.000
  0.000  1.000  0.000  0.000  0.000
  0.000  0.000  1.000  0.000  0.000
  0.000  0.000  0.000  1.000  0.000
  0.000  0.000  0.000  0.000  1.000
    occupations:
  0.200  0.000  0.000  0.000  0.000
  0.000  0.200  0.000  0.000  0.000
  0.000  0.000  0.200  0.000  0.000
  0.000  0.000  0.000  0.200  0.000
  0.000  0.000  0.000  0.000  0.200
atomic mag. moment =     4.000000
N of occupied +U levels =   12.000000
 --- exit write_ns ---
 Atomic wfc used for LDA+U Projector are NOT orthogonalized
     Starting wfc are   26 randomized atomic wfcs +    6 random wfc

     total cpu time spent up to now is        9.9 secs

     per-process dynamical memory:    94.3 Mb

     Self-consistent Calculation

     iteration #  1     ecut=   360.00 Ry     beta=0.30
     Davidson diagonalization with overlap
     ethr =  1.00E-02,  avg # of iterations =  4.5
 --- enter write_ns ---
 LDA+U parameters:
U(  1) =   4.3000   J(  1) =   0.0000   B(  1) =   0.0000
U(  2) =   4.3000   J(  2) =   0.0000   B(  2) =   0.0000
atom    1   Tr[ns(na)] (up, down, total) =   0.36964  2.53908  2.90872
   spin  1
    eigenvalues: 
  0.043  0.043  0.074  0.105  0.105
    eigenvectors:
  0.294  0.640  0.000  0.065  0.001
  0.008  0.036  0.333  0.226  0.397
  0.044  0.000  0.333  0.095  0.528
  0.640  0.294  0.000  0.001  0.065
  0.014  0.030  0.333  0.613  0.009
    occupations:
  0.047  0.006  0.006 -0.000  0.012
  0.006  0.092 -0.009  0.011  0.009
  0.006 -0.009  0.092 -0.011  0.009
 -0.000  0.011 -0.011  0.047 -0.000
  0.012  0.009  0.009 -0.000  0.092
   spin  2
    eigenvalues: 
  0.407  0.407  0.557  0.557  0.613
    eigenvectors:
  0.695  0.301  0.003  0.002  0.000
  0.002  0.001  0.015  0.649  0.333
  0.000  0.003  0.575  0.089  0.333
  0.301  0.695  0.002  0.003  0.000
  0.002  0.001  0.406  0.258  0.333
    occupations:
  0.407 -0.004 -0.004 -0.000 -0.008
 -0.004  0.575  0.019 -0.007 -0.019
 -0.004  0.019  0.575  0.007 -0.019
 -0.000 -0.007  0.007  0.407 -0.000
 -0.008 -0.019 -0.019 -0.000  0.575
atomic mag. moment =    -2.169442
atom    2   Tr[ns(na)] (up, down, total) =   2.53908  0.36964  2.90872
   spin  1
    eigenvalues: 
  0.407  0.407  0.557  0.557  0.613
    eigenvectors:
  0.684  0.312  0.004  0.000  0.000
  0.002  0.001  0.038  0.626  0.333
  0.000  0.003  0.346  0.318  0.333
  0.312  0.684  0.000  0.004  0.000
  0.002  0.001  0.612  0.052  0.333
    occupations:
  0.407 -0.004 -0.004 -0.000 -0.008
 -0.004  0.575  0.019 -0.007 -0.019
 -0.004  0.019  0.575  0.007 -0.019
 -0.000 -0.007  0.007  0.407 -0.000
 -0.008 -0.019 -0.019 -0.000  0.575
   spin  2
    eigenvalues: 
  0.043  0.043  0.074  0.105  0.105
    eigenvectors:
  0.934  0.000  0.000  0.065  0.001
  0.011  0.033  0.333  0.235  0.388
  0.011  0.033  0.333  0.088  0.535
  0.000  0.934  0.000  0.001  0.065
  0.044  0.000  0.333  0.611  0.012
    occupations:
  0.047  0.006  0.006 -0.000  0.012
  0.006  0.092 -0.009  0.011  0.009
  0.006 -0.009  0.092 -0.011  0.009
 -0.000  0.011 -0.011  0.047 -0.000
  0.012  0.009  0.009 -0.000  0.092
atomic mag. moment =     2.169442
N of occupied +U levels =    5.817430
 --- exit write_ns ---
 Modify starting ns matrices according to input values 
 --- enter write_ns ---
 LDA+U parameters:
U(  1) =   4.3000   J(  1) =   0.0000   B(  1) =   0.0000
U(  2) =   4.3000   J(  2) =   0.0000   B(  2) =   0.0000
atom    1   Tr[ns(na)] (up, down, total) =   1.29572  2.53908  3.83480
   spin  1
    eigenvalues: 
  0.043  0.043  0.105  0.105  1.000
    eigenvectors:
  0.158  0.776  0.059  0.007  0.000
  0.015  0.029  0.350  0.273  0.333
  0.043  0.000  0.025  0.598  0.333
  0.776  0.158  0.007  0.059  0.000
  0.007  0.036  0.560  0.063  0.333
    occupations:
  0.047  0.006  0.006 -0.000  0.012
  0.006  0.400  0.300  0.011 -0.300
  0.006  0.300  0.400 -0.011 -0.300
 -0.000  0.011 -0.011  0.047 -0.000
  0.012 -0.300 -0.300 -0.000  0.400
   spin  2
    eigenvalues: 
  0.407  0.407  0.557  0.557  0.613
    eigenvectors:
  0.746  0.250  0.003  0.001  0.000
  0.002  0.001  0.000  0.664  0.333
  0.000  0.003  0.486  0.178  0.333
  0.250  0.746  0.001  0.003  0.000
  0.002  0.001  0.510  0.154  0.333
    occupations:
  0.407 -0.004 -0.004 -0.000 -0.008
 -0.004  0.575  0.019 -0.007 -0.019
 -0.004  0.019  0.575  0.007 -0.019
 -0.000 -0.007  0.007  0.407 -0.000
 -0.008 -0.019 -0.019 -0.000  0.575
atomic mag. moment =    -1.243361
atom    2   Tr[ns(na)] (up, down, total) =   2.53908  1.29572  3.83480
   spin  1
    eigenvalues: 
  0.407  0.407  0.557  0.557  0.613
    eigenvectors:
  0.695  0.301  0.004  0.000  0.000
  0.002  0.001  0.046  0.618  0.333
  0.000  0.003  0.328  0.336  0.333
  0.301  0.695  0.000  0.004  0.000
  0.002  0.001  0.621  0.043  0.333
    occupations:
  0.407 -0.004 -0.004 -0.000 -0.008
 -0.004  0.575  0.019 -0.007 -0.019
 -0.004  0.019  0.575  0.007 -0.019
 -0.000 -0.007  0.007  0.407 -0.000
 -0.008 -0.019 -0.019 -0.000  0.575
   spin  2
    eigenvalues: 
  0.043  0.043  0.105  0.105  1.000
    eigenvectors:
  0.679  0.256  0.062  0.004  0.000
  0.034  0.010  0.294  0.329  0.333
  0.000  0.044  0.051  0.572  0.333
  0.256  0.679  0.004  0.062  0.000
  0.032  0.012  0.589  0.033  0.333
    occupations:
  0.047  0.006  0.006 -0.000  0.012
  0.006  0.400  0.300  0.011 -0.300
  0.006  0.300  0.400 -0.011 -0.300
 -0.000  0.011 -0.011  0.047 -0.000
  0.012 -0.300 -0.300 -0.000  0.400
atomic mag. moment =     1.243361
N of occupied +U levels =    7.669593
 --- exit write_ns ---
 --- in v_hubbard ---
Hubbard energies (dc, U, total)    3.4357   3.9045   0.4689
 -------

     total cpu time spent up to now is       48.7 secs

     total energy              =    -552.84212319 Ry
     Harris-Foulkes estimate   =    -567.33030824 Ry
     estimated scf accuracy    <      38.94058282 Ry

     total magnetization       =    -0.00 Bohr mag/cell
     absolute magnetization    =     5.08 Bohr mag/cell

     iteration #  2     ecut=   360.00 Ry     beta=0.30
     Davidson diagonalization with overlap
     ethr =  1.00E-02,  avg # of iterations =  4.0
 --- enter write_ns ---
 LDA+U parameters:
U(  1) =   4.3000   J(  1) =   0.0000   B(  1) =   0.0000
U(  2) =   4.3000   J(  2) =   0.0000   B(  2) =   0.0000
atom    1   Tr[ns(na)] (up, down, total) =   1.68192  4.85069  6.53262
   spin  1
    eigenvalues: 
  0.178  0.178  0.242  0.242  0.842
    eigenvectors:
  0.079  0.117  0.636  0.168  0.000
  0.067  0.469  0.092  0.038  0.333
  0.522  0.014  0.000  0.130  0.333
  0.117  0.079  0.168  0.636  0.000
  0.215  0.321  0.103  0.027  0.333
    occupations:
  0.229  0.010  0.010 -0.000  0.021
  0.010  0.408  0.217  0.018 -0.217
  0.010  0.217  0.408 -0.018 -0.217
 -0.000  0.018 -0.018  0.229 -0.000
  0.021 -0.217 -0.217 -0.000  0.408
   spin  2
    eigenvalues: 
  0.965  0.965  0.971  0.975  0.975
    eigenvectors:
  0.274  0.024  0.000  0.077  0.625
  0.247  0.222  0.333  0.084  0.114
  0.025  0.443  0.333  0.192  0.007
  0.024  0.274  0.000  0.625  0.077
  0.430  0.038  0.333  0.022  0.177
    occupations:
  0.972 -0.002 -0.002 -0.000 -0.003
 -0.002  0.969  0.001 -0.003 -0.001
 -0.002  0.001  0.969  0.003 -0.001
 -0.000 -0.003  0.003  0.972 -0.000
 -0.003 -0.001 -0.001 -0.000  0.969
atomic mag. moment =    -3.168771
atom    2   Tr[ns(na)] (up, down, total) =   4.85069  1.68192  6.53262
   spin  1
    eigenvalues: 
  0.965  0.965  0.971  0.975  0.975
    eigenvectors:
  0.273  0.025  0.000  0.051  0.652
  0.248  0.220  0.333  0.097  0.101
  0.025  0.443  0.333  0.186  0.012
  0.025  0.273  0.000  0.652  0.051
  0.430  0.039  0.333  0.014  0.184
    occupations:
  0.972 -0.002 -0.002 -0.000 -0.003
 -0.002  0.969  0.001 -0.003 -0.001
 -0.002  0.001  0.969  0.003 -0.001
 -0.000 -0.003  0.003  0.972 -0.000
 -0.003 -0.001 -0.001 -0.000  0.969
   spin  2
    eigenvalues: 
  0.178  0.178  0.242  0.242  0.842
    eigenvectors:
  0.071  0.125  0.672  0.132  0.000
  0.082  0.454  0.085  0.045  0.333
  0.528  0.008  0.001  0.129  0.333
  0.125  0.071  0.132  0.672  0.000
  0.194  0.342  0.109  0.021  0.333
    occupations:
  0.229  0.010  0.010 -0.000  0.021
  0.010  0.408  0.217  0.018 -0.217
  0.010  0.217  0.408 -0.018 -0.217
 -0.000  0.018 -0.018  0.229 -0.000
  0.021 -0.217 -0.217 -0.000  0.408
atomic mag. moment =     3.168770
N of occupied +U levels =   13.065233
 --- exit write_ns ---
 --- in v_hubbard ---
Hubbard energies (dc, U, total)    5.0996   5.5975   0.4978
 -------

     total cpu time spent up to now is       85.0 secs

     total energy              =    -557.65259382 Ry
     Harris-Foulkes estimate   =    -558.84273307 Ry
     estimated scf accuracy    <       5.04634867 Ry

     total magnetization       =    -0.00 Bohr mag/cell
     absolute magnetization    =     6.71 Bohr mag/cell

     iteration #  3     ecut=   360.00 Ry     beta=0.30
     Davidson diagonalization with overlap
     ethr =  1.00E-02,  avg # of iterations =  2.0
 --- enter write_ns ---
 LDA+U parameters:
U(  1) =   4.3000   J(  1) =   0.0000   B(  1) =   0.0000
U(  2) =   4.3000   J(  2) =   0.0000   B(  2) =   0.0000
atom    1   Tr[ns(na)] (up, down, total) =   0.95837  4.78588  5.74425
   spin  1
    eigenvalues: 
  0.051  0.051  0.067  0.067  0.723
    eigenvectors:
  0.000  0.127  0.346  0.528  0.000
  0.433  0.149  0.082  0.002  0.333
  0.441  0.142  0.011  0.074  0.333
  0.127  0.000  0.528  0.346  0.000
  0.000  0.582  0.033  0.051  0.333
    occupations:
  0.065  0.002  0.002 -0.000  0.005
  0.002  0.276  0.223  0.004 -0.223
  0.002  0.223  0.276 -0.004 -0.223
 -0.000  0.004 -0.004  0.065 -0.000
  0.005 -0.223 -0.223 -0.000  0.276
   spin  2
    eigenvalues: 
  0.947  0.949  0.949  0.970  0.970
    eigenvectors:
  0.000  0.079  0.002  0.313  0.605
  0.333  0.241  0.372  0.054  0.001
  0.333  0.080  0.532  0.009  0.045
  0.000  0.002  0.079  0.605  0.313
  0.333  0.598  0.014  0.019  0.036
    occupations:
  0.968 -0.002 -0.002 -0.000 -0.005
 -0.002  0.950 -0.002 -0.004  0.002
 -0.002 -0.002  0.950  0.004  0.002
 -0.000 -0.004  0.004  0.968 -0.000
 -0.005  0.002  0.002 -0.000  0.950
atomic mag. moment =    -3.827508
atom    2   Tr[ns(na)] (up, down, total) =   4.78588  0.95837  5.74425
   spin  1
    eigenvalues: 
  0.947  0.949  0.949  0.970  0.970
    eigenvectors:
  0.000  0.079  0.003  0.205  0.713
  0.333  0.258  0.354  0.054  0.000
  0.333  0.068  0.544  0.015  0.039
  0.000  0.003  0.079  0.713  0.205
  0.333  0.592  0.020  0.012  0.042
    occupations:
  0.968 -0.002 -0.002 -0.000 -0.005
 -0.002  0.950 -0.002 -0.004  0.002
 -0.002 -0.002  0.950  0.004  0.002
 -0.000 -0.004  0.004  0.968 -0.000
 -0.005  0.002  0.002 -0.000  0.950
   spin  2
    eigenvalues: 
  0.051  0.051  0.067  0.067  0.723
    eigenvectors:
  0.001  0.125  0.719  0.155  0.000
  0.482  0.100  0.056  0.028  0.333
  0.386  0.196  0.001  0.084  0.333
  0.125  0.001  0.155  0.719  0.000
  0.005  0.577  0.069  0.015  0.333
    occupations:
  0.065  0.002  0.002 -0.000  0.005
  0.002  0.276  0.223  0.004 -0.223
  0.002  0.223  0.276 -0.004 -0.223
 -0.000  0.004 -0.004  0.065 -0.000
  0.005 -0.223 -0.223 -0.000  0.276
atomic mag. moment =     3.827508
N of occupied +U levels =   11.488498
 --- exit write_ns ---
 --- in v_hubbard ---
Hubbard energies (dc, U, total)    6.2579   6.7030   0.4451
 -------

     total cpu time spent up to now is      107.9 secs

     total energy              =    -558.62130620 Ry
     Harris-Foulkes estimate   =    -558.55209364 Ry
     estimated scf accuracy    <       0.80822776 Ry

     total magnetization       =    -0.00 Bohr mag/cell
     absolute magnetization    =     7.76 Bohr mag/cell

     iteration #  4     ecut=   360.00 Ry     beta=0.30
     Davidson diagonalization with overlap
     ethr =  1.84E-03,  avg # of iterations =  1.6
 --- enter write_ns ---
 LDA+U parameters:
U(  1) =   4.3000   J(  1) =   0.0000   B(  1) =   0.0000
U(  2) =   4.3000   J(  2) =   0.0000   B(  2) =   0.0000
atom    1   Tr[ns(na)] (up, down, total) =   1.09480  4.84337  5.93817
   spin  1
    eigenvalues: 
  0.051  0.051  0.086  0.086  0.820
    eigenvectors:
  0.001  0.013  0.548  0.437  0.000
  0.298  0.359  0.009  0.001  0.333
  0.627  0.030  0.000  0.009  0.333
  0.013  0.001  0.437  0.548  0.000
  0.060  0.597  0.005  0.004  0.333
    occupations:
  0.086  0.002  0.002 -0.000  0.003
  0.002  0.308  0.256  0.003 -0.256
  0.002  0.256  0.308 -0.003 -0.256
 -0.000  0.003 -0.003  0.086 -0.000
  0.003 -0.256 -0.256 -0.000  0.308
   spin  2
    eigenvalues: 
  0.959  0.964  0.964  0.978  0.978
    eigenvectors:
  0.000  0.075  0.001  0.259  0.666
  0.333  0.205  0.411  0.050  0.000
  0.333  0.108  0.508  0.011  0.039
  0.000  0.001  0.075  0.666  0.259
  0.333  0.611  0.005  0.014  0.036
    occupations:
  0.977 -0.001 -0.001 -0.000 -0.003
 -0.001  0.963 -0.002 -0.003  0.002
 -0.001 -0.002  0.963  0.003  0.002
 -0.000 -0.003  0.003  0.977 -0.000
 -0.003  0.002  0.002 -0.000  0.963
atomic mag. moment =    -3.748576
atom    2   Tr[ns(na)] (up, down, total) =   4.84337  1.09480  5.93817
   spin  1
    eigenvalues: 
  0.959  0.964  0.964  0.978  0.978
    eigenvectors:
  0.000  0.074  0.001  0.302  0.623
  0.333  0.224  0.393  0.050  0.000
  0.333  0.094  0.523  0.009  0.041
  0.000  0.001  0.074  0.623  0.302
  0.333  0.607  0.009  0.016  0.034
    occupations:
  0.977 -0.001 -0.001 -0.000 -0.003
 -0.001  0.963 -0.002 -0.003  0.002
 -0.001 -0.002  0.963  0.003  0.002
 -0.000 -0.003  0.003  0.977 -0.000
 -0.003  0.002  0.002 -0.000  0.963
   spin  2
    eigenvalues: 
  0.051  0.051  0.086  0.086  0.820
    eigenvectors:
  0.002  0.013  0.349  0.636  0.000
  0.247  0.409  0.010  0.000  0.333
  0.645  0.012  0.002  0.008  0.333
  0.013  0.002  0.636  0.349  0.000
  0.093  0.564  0.003  0.006  0.333
    occupations:
  0.086  0.002  0.002 -0.000  0.003
  0.002  0.308  0.256  0.003 -0.256
  0.002  0.256  0.308 -0.003 -0.256
 -0.000  0.003 -0.003  0.086 -0.000
  0.003 -0.256 -0.256 -0.000  0.308
atomic mag. moment =     3.748576
N of occupied +U levels =   11.876337
 --- exit write_ns ---
 --- in v_hubbard ---
Hubbard energies (dc, U, total)    8.8713   9.0930   0.2218
 -------

     total cpu time spent up to now is      130.0 secs

     total energy              =    -558.81968085 Ry
     Harris-Foulkes estimate   =    -558.67196137 Ry
     estimated scf accuracy    <       0.24807817 Ry

     total magnetization       =    -0.00 Bohr mag/cell
     absolute magnetization    =     7.63 Bohr mag/cell

     iteration #  5     ecut=   360.00 Ry     beta=0.30
     Davidson diagonalization with overlap
     ethr =  5.64E-04,  avg # of iterations =  2.0
 --- enter write_ns ---
 LDA+U parameters:
U(  1) =   4.3000   J(  1) =   0.0000   B(  1) =   0.0000
U(  2) =   4.3000   J(  2) =   0.0000   B(  2) =   0.0000
atom    1   Tr[ns(na)] (up, down, total) =   1.19809  4.85634  6.05442
   spin  1
    eigenvalues: 
  0.055  0.055  0.111  0.111  0.866
    eigenvectors:
  0.006  0.014  0.709  0.271  0.000
  0.131  0.522  0.011  0.003  0.333
  0.651  0.002  0.000  0.014  0.333
  0.014  0.006  0.271  0.709  0.000
  0.198  0.455  0.010  0.004  0.333
    occupations:
  0.110  0.003  0.003 -0.000  0.007
  0.003  0.326  0.270  0.006 -0.270
  0.003  0.270  0.326 -0.006 -0.270
 -0.000  0.006 -0.006  0.110 -0.000
  0.007 -0.270 -0.270 -0.000  0.326
   spin  2
    eigenvalues: 
  0.959  0.969  0.969  0.980  0.980
    eigenvectors:
  0.000  0.059  0.000  0.437  0.504
  0.333  0.159  0.468  0.037  0.002
  0.333  0.154  0.473  0.003  0.036
  0.000  0.000  0.059  0.504  0.437
  0.333  0.627  0.000  0.018  0.021
    occupations:
  0.979 -0.001 -0.001 -0.000 -0.002
 -0.001  0.966 -0.004 -0.002  0.004
 -0.001 -0.004  0.966  0.002  0.004
 -0.000 -0.002  0.002  0.979 -0.000
 -0.002  0.004  0.004 -0.000  0.966
atomic mag. moment =    -3.658248
atom    2   Tr[ns(na)] (up, down, total) =   4.85634  1.19809  6.05442
   spin  1
    eigenvalues: 
  0.959  0.969  0.969  0.980  0.980
    eigenvectors:
  0.000  0.059  0.000  0.382  0.559
  0.333  0.188  0.439  0.038  0.001
  0.333  0.128  0.500  0.005  0.035
  0.000  0.000  0.059  0.559  0.382
  0.333  0.625  0.002  0.016  0.023
    occupations:
  0.979 -0.001 -0.001 -0.000 -0.002
 -0.001  0.966 -0.004 -0.002  0.004
 -0.001 -0.004  0.966  0.002  0.004
 -0.000 -0.002  0.002  0.979 -0.000
 -0.002  0.004  0.004 -0.000  0.966
   spin  2
    eigenvalues: 
  0.055  0.055  0.111  0.111  0.866
    eigenvectors:
  0.004  0.017  0.731  0.249  0.000
  0.199  0.454  0.010  0.003  0.333
  0.650  0.002  0.000  0.014  0.333
  0.017  0.004  0.249  0.731  0.000
  0.130  0.523  0.010  0.004  0.333
    occupations:
  0.110  0.003  0.003 -0.000  0.007
  0.003  0.326  0.270  0.006 -0.270
  0.003  0.270  0.326 -0.006 -0.270
 -0.000  0.006 -0.006  0.110 -0.000
  0.007 -0.270 -0.270 -0.000  0.326
atomic mag. moment =     3.658248
N of occupied +U levels =   12.108846
 --- exit write_ns ---
 --- in v_hubbard ---
Hubbard energies (dc, U, total)    9.4379   9.6110   0.1730
 -------

     total cpu time spent up to now is      152.4 secs

     total energy              =    -558.82976789 Ry
     Harris-Foulkes estimate   =    -558.83990685 Ry
     estimated scf accuracy    <       0.04577352 Ry

     total magnetization       =    -0.00 Bohr mag/cell
     absolute magnetization    =     7.48 Bohr mag/cell

     iteration #  6     ecut=   360.00 Ry     beta=0.30
     Davidson diagonalization with overlap
     ethr =  1.04E-04,  avg # of iterations =  2.1
 --- enter write_ns ---
 LDA+U parameters:
U(  1) =   4.3000   J(  1) =   0.0000   B(  1) =   0.0000
U(  2) =   4.3000   J(  2) =   0.0000   B(  2) =   0.0000
atom    1   Tr[ns(na)] (up, down, total) =   1.14781  4.83754  5.98536
   spin  1
    eigenvalues: 
  0.048  0.048  0.098  0.098  0.856
    eigenvectors:
  0.011  0.012  0.726  0.251  0.000
  0.051  0.600  0.012  0.004  0.333
  0.615  0.037  0.000  0.015  0.333
  0.012  0.011  0.251  0.726  0.000
  0.311  0.341  0.011  0.004  0.333
    occupations:
  0.097  0.003  0.003 -0.000  0.006
  0.003  0.318  0.269  0.005 -0.269
  0.003  0.269  0.318 -0.005 -0.269
 -0.000  0.005 -0.005  0.097 -0.000
  0.006 -0.269 -0.269 -0.000  0.318
   spin  2
    eigenvalues: 
  0.951  0.965  0.965  0.978  0.978
    eigenvectors:
  0.000  0.054  0.001  0.473  0.473
  0.333  0.221  0.409  0.034  0.002
  0.333  0.102  0.528  0.002  0.034
  0.000  0.001  0.054  0.473  0.473
  0.333  0.623  0.008  0.018  0.018
    occupations:
  0.977 -0.001 -0.001 -0.000 -0.002
 -0.001  0.961 -0.005 -0.002  0.005
 -0.001 -0.005  0.961  0.002  0.005
 -0.000 -0.002  0.002  0.977 -0.000
 -0.002  0.005  0.005 -0.000  0.961
atomic mag. moment =    -3.689730
atom    2   Tr[ns(na)] (up, down, total) =   4.83754  1.14781  5.98536
   spin  1
    eigenvalues: 
  0.951  0.965  0.965  0.978  0.978
    eigenvectors:
  0.000  0.055  0.000  0.570  0.375
  0.333  0.169  0.461  0.032  0.005
  0.333  0.146  0.484  0.001  0.036
  0.000  0.000  0.055  0.375  0.570
  0.333  0.630  0.000  0.022  0.014
    occupations:
  0.977 -0.001 -0.001 -0.000 -0.002
 -0.001  0.961 -0.005 -0.002  0.005
 -0.001 -0.005  0.961  0.002  0.005
 -0.000 -0.002  0.002  0.977 -0.000
 -0.002  0.005  0.005 -0.000  0.961
   spin  2
    eigenvalues: 
  0.048  0.048  0.098  0.098  0.856
    eigenvectors:
  0.001  0.022  0.537  0.440  0.000
  0.349  0.303  0.014  0.001  0.333
  0.596  0.056  0.001  0.015  0.333
  0.022  0.001  0.440  0.537  0.000
  0.033  0.619  0.008  0.007  0.333
    occupations:
  0.097  0.003  0.003 -0.000  0.006
  0.003  0.318  0.269  0.005 -0.269
  0.003  0.269  0.318 -0.005 -0.269
 -0.000  0.005 -0.005  0.097 -0.000
  0.006 -0.269 -0.269 -0.000  0.318
atomic mag. moment =     3.689730
N of occupied +U levels =   11.970719
 --- exit write_ns ---
 --- in v_hubbard ---
Hubbard energies (dc, U, total)    9.4895   9.6581   0.1685
 -------

     total cpu time spent up to now is      175.3 secs

     total energy              =    -558.83684619 Ry
     Harris-Foulkes estimate   =    -558.83643243 Ry
     estimated scf accuracy    <       0.00085824 Ry

     total magnetization       =     0.00 Bohr mag/cell
     absolute magnetization    =     7.54 Bohr mag/cell

     iteration #  7     ecut=   360.00 Ry     beta=0.30
     Davidson diagonalization with overlap
     ethr =  1.95E-06,  avg # of iterations =  3.4
 --- enter write_ns ---
 LDA+U parameters:
U(  1) =   4.3000   J(  1) =   0.0000   B(  1) =   0.0000
U(  2) =   4.3000   J(  2) =   0.0000   B(  2) =   0.0000
atom    1   Tr[ns(na)] (up, down, total) =   1.14575  4.83364  5.97939
   spin  1
    eigenvalues: 
  0.047  0.047  0.096  0.096  0.860
    eigenvectors:
  0.010  0.011  0.503  0.477  0.000
  0.051  0.603  0.012  0.001  0.333
  0.616  0.037  0.001  0.013  0.333
  0.011  0.010  0.477  0.503  0.000
  0.313  0.340  0.007  0.007  0.333
    occupations:
  0.095  0.003  0.003 -0.000  0.006
  0.003  0.318  0.271  0.005 -0.271
  0.003  0.271  0.318 -0.005 -0.271
 -0.000  0.005 -0.005  0.095 -0.000
  0.006 -0.271 -0.271 -0.000  0.318
   spin  2
    eigenvalues: 
  0.950  0.964  0.964  0.977  0.977
    eigenvectors:
  0.000  0.056  0.000  0.262  0.681
  0.333  0.198  0.431  0.037  0.000
  0.333  0.120  0.510  0.008  0.029
  0.000  0.000  0.056  0.681  0.262
  0.333  0.626  0.003  0.010  0.027
    occupations:
  0.977 -0.001 -0.001 -0.000 -0.002
 -0.001  0.960 -0.005 -0.002  0.005
 -0.001 -0.005  0.960  0.002  0.005
 -0.000 -0.002  0.002  0.977 -0.000
 -0.002  0.005  0.005 -0.000  0.960
atomic mag. moment =    -3.687884
atom    2   Tr[ns(na)] (up, down, total) =   4.83364  1.14575  5.97939
   spin  1
    eigenvalues: 
  0.950  0.964  0.964  0.977  0.977
    eigenvectors:
  0.000  0.056  0.000  0.433  0.511
  0.333  0.183  0.446  0.036  0.002
  0.333  0.133  0.497  0.003  0.034
  0.000  0.000  0.056  0.511  0.433
  0.333  0.628  0.001  0.017  0.020
    occupations:
  0.977 -0.001 -0.001 -0.000 -0.002
 -0.001  0.960 -0.005 -0.002  0.005
 -0.001 -0.005  0.960  0.002  0.005
 -0.000 -0.002  0.002  0.977 -0.000
 -0.002  0.005  0.005 -0.000  0.960
   spin  2
    eigenvalues: 
  0.047  0.047  0.096  0.096  0.860
    eigenvectors:
  0.015  0.006  0.571  0.409  0.000
  0.001  0.653  0.012  0.002  0.333
  0.506  0.148  0.000  0.013  0.333
  0.006  0.015  0.409  0.571  0.000
  0.474  0.180  0.008  0.006  0.333
    occupations:
  0.095  0.003  0.003 -0.000  0.006
  0.003  0.318  0.271  0.005 -0.271
  0.003  0.271  0.318 -0.005 -0.271
 -0.000  0.005 -0.005  0.095 -0.000
  0.006 -0.271 -0.271 -0.000  0.318
atomic mag. moment =     3.687884
N of occupied +U levels =   11.958773
 --- exit write_ns ---
 --- in v_hubbard ---
Hubbard energies (dc, U, total)    9.4601   9.6303   0.1702
 -------

     total cpu time spent up to now is      203.9 secs

     total energy              =    -558.83711538 Ry
     Harris-Foulkes estimate   =    -558.83711648 Ry
     estimated scf accuracy    <       0.00078847 Ry

     total magnetization       =    -0.00 Bohr mag/cell
     absolute magnetization    =     7.54 Bohr mag/cell

     iteration #  8     ecut=   360.00 Ry     beta=0.30
     Davidson diagonalization with overlap
     ethr =  1.79E-06,  avg # of iterations =  2.0
 --- enter write_ns ---
 LDA+U parameters:
U(  1) =   4.3000   J(  1) =   0.0000   B(  1) =   0.0000
U(  2) =   4.3000   J(  2) =   0.0000   B(  2) =   0.0000
atom    1   Tr[ns(na)] (up, down, total) =   1.15479  4.83510  5.98988
   spin  1
    eigenvalues: 
  0.046  0.046  0.098  0.098  0.868
    eigenvectors:
  0.005  0.013  0.508  0.474  0.000
  0.153  0.502  0.011  0.001  0.333
  0.655  0.000  0.001  0.011  0.333
  0.013  0.005  0.474  0.508  0.000
  0.175  0.480  0.006  0.006  0.333
    occupations:
  0.097  0.003  0.003 -0.000  0.006
  0.003  0.320  0.274  0.005 -0.274
  0.003  0.274  0.320 -0.005 -0.274
 -0.000  0.005 -0.005  0.097 -0.000
  0.006 -0.274 -0.274 -0.000  0.320
   spin  2
    eigenvalues: 
  0.950  0.965  0.965  0.978  0.978
    eigenvectors:
  0.000  0.058  0.000  0.313  0.628
  0.333  0.162  0.465  0.039  0.000
  0.333  0.152  0.476  0.007  0.032
  0.000  0.000  0.058  0.628  0.313
  0.333  0.628  0.000  0.013  0.026
    occupations:
  0.977 -0.001 -0.001 -0.000 -0.002
 -0.001  0.960 -0.005 -0.002  0.005
 -0.001 -0.005  0.960  0.002  0.005
 -0.000 -0.002  0.002  0.977 -0.000
 -0.002  0.005  0.005 -0.000  0.960
atomic mag. moment =    -3.680310
atom    2   Tr[ns(na)] (up, down, total) =   4.83510  1.15479  5.98988
   spin  1
    eigenvalues: 
  0.950  0.965  0.965  0.978  0.978
    eigenvectors:
  0.000  0.058  0.001  0.373  0.568
  0.333  0.211  0.416  0.038  0.001
  0.333  0.108  0.520  0.005  0.034
  0.000  0.001  0.058  0.568  0.373
  0.333  0.622  0.006  0.015  0.024
    occupations:
  0.977 -0.001 -0.001 -0.000 -0.002
 -0.001  0.960 -0.005 -0.002  0.005
 -0.001 -0.005  0.960  0.002  0.005
 -0.000 -0.002  0.002  0.977 -0.000
 -0.002  0.005  0.005 -0.000  0.960
   spin  2
    eigenvalues: 
  0.046  0.046  0.098  0.098  0.868
    eigenvectors:
  0.016  0.001  0.711  0.272  0.000
  0.060  0.596  0.009  0.003  0.333
  0.298  0.357  0.000  0.011  0.333
  0.001  0.016  0.272  0.711  0.000
  0.625  0.030  0.008  0.003  0.333
    occupations:
  0.097  0.003  0.003 -0.000  0.006
  0.003  0.320  0.274  0.005 -0.274
  0.003  0.274  0.320 -0.005 -0.274
 -0.000  0.005 -0.005  0.097 -0.000
  0.006 -0.274 -0.274 -0.000  0.320
atomic mag. moment =     3.680310
N of occupied +U levels =   11.979767
 --- exit write_ns ---
 --- in v_hubbard ---
Hubbard energies (dc, U, total)    9.4546   9.6248   0.1702
 -------

     total cpu time spent up to now is      227.0 secs

     total energy              =    -558.83734820 Ry
     Harris-Foulkes estimate   =    -558.83730701 Ry
     estimated scf accuracy    <       0.00009648 Ry

     total magnetization       =    -0.00 Bohr mag/cell
     absolute magnetization    =     7.53 Bohr mag/cell

     iteration #  9     ecut=   360.00 Ry     beta=0.30
     Davidson diagonalization with overlap
     ethr =  2.19E-07,  avg # of iterations =  2.0
 --- enter write_ns ---
 LDA+U parameters:
U(  1) =   4.3000   J(  1) =   0.0000   B(  1) =   0.0000
U(  2) =   4.3000   J(  2) =   0.0000   B(  2) =   0.0000
atom    1   Tr[ns(na)] (up, down, total) =   1.15311  4.83350  5.98661
   spin  1
    eigenvalues: 
  0.045  0.045  0.097  0.097  0.868
    eigenvectors:
  0.016  0.001  0.705  0.278  0.000
  0.052  0.603  0.009  0.002  0.333
  0.311  0.344  0.000  0.011  0.333
  0.001  0.016  0.278  0.705  0.000
  0.619  0.036  0.008  0.003  0.333
    occupations:
  0.096  0.003  0.003 -0.000  0.005
  0.003  0.320  0.274  0.005 -0.274
  0.003  0.274  0.320 -0.005 -0.274
 -0.000  0.005 -0.005  0.096 -0.000
  0.005 -0.274 -0.274 -0.000  0.320
   spin  2
    eigenvalues: 
  0.949  0.965  0.965  0.978  0.978
    eigenvectors:
  0.000  0.058  0.000  0.621  0.321
  0.333  0.208  0.419  0.033  0.007
  0.333  0.111  0.517  0.000  0.039
  0.000  0.000  0.058  0.321  0.621
  0.333  0.622  0.005  0.026  0.013
    occupations:
  0.977 -0.001 -0.001 -0.000 -0.003
 -0.001  0.960 -0.005 -0.002  0.005
 -0.001 -0.005  0.960  0.002  0.005
 -0.000 -0.002  0.002  0.977 -0.000
 -0.003  0.005  0.005 -0.000  0.960
atomic mag. moment =    -3.680389
atom    2   Tr[ns(na)] (up, down, total) =   4.83350  1.15311  5.98661
   spin  1
    eigenvalues: 
  0.949  0.965  0.965  0.978  0.978
    eigenvectors:
  0.000  0.059  0.000  0.262  0.680
  0.333  0.185  0.442  0.039  0.000
  0.333  0.130  0.498  0.009  0.030
  0.000  0.000  0.059  0.680  0.262
  0.333  0.626  0.002  0.011  0.028
    occupations:
  0.977 -0.001 -0.001 -0.000 -0.003
 -0.001  0.960 -0.005 -0.002  0.005
 -0.001 -0.005  0.960  0.002  0.005
 -0.000 -0.002  0.002  0.977 -0.000
 -0.003  0.005  0.005 -0.000  0.960
   spin  2
    eigenvalues: 
  0.045  0.045  0.097  0.097  0.868
    eigenvectors:
  0.016  0.001  0.704  0.279  0.000
  0.053  0.602  0.009  0.002  0.333
  0.310  0.346  0.000  0.011  0.333
  0.001  0.016  0.279  0.704  0.000
  0.620  0.035  0.008  0.003  0.333
    occupations:
  0.096  0.003  0.003 -0.000  0.005
  0.003  0.320  0.274  0.005 -0.274
  0.003  0.274  0.320 -0.005 -0.274
 -0.000  0.005 -0.005  0.096 -0.000
  0.005 -0.274 -0.274 -0.000  0.320
atomic mag. moment =     3.680389
N of occupied +U levels =   11.973229
 --- exit write_ns ---
 --- in v_hubbard ---
Hubbard energies (dc, U, total)    9.4443   9.6135   0.1692
 -------

     total cpu time spent up to now is      251.7 secs

     total energy              =    -558.83737180 Ry
     Harris-Foulkes estimate   =    -558.83737222 Ry
     estimated scf accuracy    <       0.00005565 Ry

     total magnetization       =     0.00 Bohr mag/cell
     absolute magnetization    =     7.53 Bohr mag/cell

     iteration # 10     ecut=   360.00 Ry     beta=0.30
     Davidson diagonalization with overlap
     ethr =  1.26E-07,  avg # of iterations =  2.0
 --- enter write_ns ---
 LDA+U parameters:
U(  1) =   4.3000   J(  1) =   0.0000   B(  1) =   0.0000
U(  2) =   4.3000   J(  2) =   0.0000   B(  2) =   0.0000
atom    1   Tr[ns(na)] (up, down, total) =   1.15562  4.83345  5.98906
   spin  1
    eigenvalues: 
  0.045  0.045  0.098  0.098  0.871
    eigenvectors:
  0.013  0.003  0.860  0.123  0.000
  0.005  0.650  0.007  0.004  0.333
  0.438  0.218  0.000  0.011  0.333
  0.003  0.013  0.123  0.860  0.000
  0.540  0.116  0.010  0.001  0.333
    occupations:
  0.097  0.003  0.003 -0.000  0.005
  0.003  0.321  0.275  0.005 -0.275
  0.003  0.275  0.321 -0.005 -0.275
 -0.000  0.005 -0.005  0.097 -0.000
  0.005 -0.275 -0.275 -0.000  0.321
   spin  2
    eigenvalues: 
  0.949  0.965  0.965  0.978  0.978
    eigenvectors:
  0.000  0.058  0.001  0.385  0.556
  0.333  0.218  0.410  0.038  0.001
  0.333  0.103  0.524  0.005  0.035
  0.000  0.001  0.058  0.556  0.385
  0.333  0.620  0.007  0.016  0.023
    occupations:
  0.977 -0.001 -0.001 -0.000 -0.003
 -0.001  0.960 -0.005 -0.002  0.005
 -0.001 -0.005  0.960  0.002  0.005
 -0.000 -0.002  0.002  0.977 -0.000
 -0.003  0.005  0.005 -0.000  0.960
atomic mag. moment =    -3.677828
atom    2   Tr[ns(na)] (up, down, total) =   4.83345  1.15562  5.98906
   spin  1
    eigenvalues: 
  0.949  0.965  0.965  0.978  0.978
    eigenvectors:
  0.000  0.059  0.000  0.600  0.341
  0.333  0.185  0.442  0.033  0.006
  0.333  0.130  0.497  0.001  0.039
  0.000  0.000  0.059  0.341  0.600
  0.333  0.626  0.002  0.025  0.014
    occupations:
  0.977 -0.001 -0.001 -0.000 -0.003
 -0.001  0.960 -0.005 -0.002  0.005
 -0.001 -0.005  0.960  0.002  0.005
 -0.000 -0.002  0.002  0.977 -0.000
 -0.003  0.005  0.005 -0.000  0.960
   spin  2
    eigenvalues: 
  0.045  0.045  0.098  0.098  0.871
    eigenvectors:
  0.016  0.000  0.832  0.152  0.000
  0.144  0.511  0.007  0.004  0.333
  0.184  0.472  0.000  0.011  0.333
  0.000  0.016  0.152  0.832  0.000
  0.655  0.001  0.009  0.002  0.333
    occupations:
  0.097  0.003  0.003 -0.000  0.005
  0.003  0.321  0.275  0.005 -0.275
  0.003  0.275  0.321 -0.005 -0.275
 -0.000  0.005 -0.005  0.097 -0.000
  0.005 -0.275 -0.275 -0.000  0.321
atomic mag. moment =     3.677829
N of occupied +U levels =   11.978124
 --- exit write_ns ---
 --- in v_hubbard ---
Hubbard energies (dc, U, total)    9.4425   9.6119   0.1693
 -------

     total cpu time spent up to now is      275.2 secs

     total energy              =    -558.83738949 Ry
     Harris-Foulkes estimate   =    -558.83738965 Ry
     estimated scf accuracy    <       0.00000116 Ry

     total magnetization       =    -0.00 Bohr mag/cell
     absolute magnetization    =     7.53 Bohr mag/cell

     iteration # 11     ecut=   360.00 Ry     beta=0.30
     Davidson diagonalization with overlap
     ethr =  2.63E-09,  avg # of iterations =  2.0
 --- enter write_ns ---
 LDA+U parameters:
U(  1) =   4.3000   J(  1) =   0.0000   B(  1) =   0.0000
U(  2) =   4.3000   J(  2) =   0.0000   B(  2) =   0.0000
atom    1   Tr[ns(na)] (up, down, total) =   1.15541  4.83342  5.98884
   spin  1
    eigenvalues: 
  0.045  0.045  0.098  0.098  0.871
    eigenvectors:
  0.016  0.000  0.821  0.163  0.000
  0.091  0.565  0.007  0.004  0.333
  0.250  0.406  0.000  0.011  0.333
  0.000  0.016  0.163  0.821  0.000
  0.643  0.013  0.009  0.002  0.333
    occupations:
  0.097  0.003  0.003 -0.000  0.005
  0.003  0.321  0.275  0.005 -0.275
  0.003  0.275  0.321 -0.005 -0.275
 -0.000  0.005 -0.005  0.097 -0.000
  0.005 -0.275 -0.275 -0.000  0.321
   spin  2
    eigenvalues: 
  0.949  0.965  0.965  0.978  0.978
    eigenvectors:
  0.000  0.058  0.001  0.327  0.614
  0.333  0.222  0.405  0.039  0.000
  0.333  0.100  0.528  0.006  0.033
  0.000  0.001  0.058  0.614  0.327
  0.333  0.619  0.008  0.014  0.026
    occupations:
  0.977 -0.001 -0.001 -0.000 -0.003
 -0.001  0.960 -0.005 -0.002  0.005
 -0.001 -0.005  0.960  0.002  0.005
 -0.000 -0.002  0.002  0.977 -0.000
 -0.003  0.005  0.005 -0.000  0.960
atomic mag. moment =    -3.678009
atom    2   Tr[ns(na)] (up, down, total) =   4.83342  1.15541  5.98884
   spin  1
    eigenvalues: 
  0.949  0.965  0.965  0.978  0.978
    eigenvectors:
  0.000  0.059  0.000  0.514  0.427
  0.333  0.194  0.433  0.036  0.004
  0.333  0.122  0.505  0.002  0.038
  0.000  0.000  0.059  0.427  0.514
  0.333  0.625  0.003  0.021  0.018
    occupations:
  0.977 -0.001 -0.001 -0.000 -0.003
 -0.001  0.960 -0.005 -0.002  0.005
 -0.001 -0.005  0.960  0.002  0.005
 -0.000 -0.002  0.002  0.977 -0.000
 -0.003  0.005  0.005 -0.000  0.960
   spin  2
    eigenvalues: 
  0.045  0.045  0.098  0.098  0.871
    eigenvectors:
  0.011  0.005  0.624  0.360  0.000
  0.003  0.653  0.009  0.002  0.333
  0.527  0.129  0.000  0.011  0.333
  0.005  0.011  0.360  0.624  0.000
  0.455  0.201  0.007  0.004  0.333
    occupations:
  0.097  0.003  0.003 -0.000  0.005
  0.003  0.321  0.275  0.005 -0.275
  0.003  0.275  0.321 -0.005 -0.275
 -0.000  0.005 -0.005  0.097 -0.000
  0.005 -0.275 -0.275 -0.000  0.321
atomic mag. moment =     3.678008
N of occupied +U levels =   11.977676
 --- exit write_ns ---
 --- in v_hubbard ---
Hubbard energies (dc, U, total)    9.4424   9.6115   0.1691
 -------

     total cpu time spent up to now is      299.8 secs

     total energy              =    -558.83738986 Ry
     Harris-Foulkes estimate   =    -558.83738972 Ry
     estimated scf accuracy    <       0.00000021 Ry

     total magnetization       =    -0.00 Bohr mag/cell
     absolute magnetization    =     7.53 Bohr mag/cell

     iteration # 12     ecut=   360.00 Ry     beta=0.30
     Davidson diagonalization with overlap
     ethr =  4.68E-10,  avg # of iterations =  2.0
 --- enter write_ns ---
 LDA+U parameters:
U(  1) =   4.3000   J(  1) =   0.0000   B(  1) =   0.0000
U(  2) =   4.3000   J(  2) =   0.0000   B(  2) =   0.0000
atom    1   Tr[ns(na)] (up, down, total) =   1.15541  4.83336  5.98877
   spin  1
    eigenvalues: 
  0.045  0.045  0.098  0.098  0.871
    eigenvectors:
  0.015  0.001  0.693  0.290  0.000
  0.038  0.618  0.009  0.002  0.333
  0.341  0.315  0.000  0.011  0.333
  0.001  0.015  0.290  0.693  0.000
  0.605  0.051  0.008  0.003  0.333
    occupations:
  0.097  0.003  0.003 -0.000  0.005
  0.003  0.321  0.275  0.005 -0.275
  0.003  0.275  0.321 -0.005 -0.275
 -0.000  0.005 -0.005  0.097 -0.000
  0.005 -0.275 -0.275 -0.000  0.321
   spin  2
    eigenvalues: 
  0.949  0.965  0.965  0.978  0.978
    eigenvectors:
  0.000  0.059  0.000  0.470  0.470
  0.333  0.173  0.454  0.037  0.003
  0.333  0.141  0.486  0.003  0.037
  0.000  0.000  0.059  0.470  0.470
  0.333  0.627  0.001  0.020  0.020
    occupations:
  0.977 -0.001 -0.001 -0.000 -0.003
 -0.001  0.960 -0.005 -0.002  0.005
 -0.001 -0.005  0.960  0.002  0.005
 -0.000 -0.002  0.002  0.977 -0.000
 -0.003  0.005  0.005 -0.000  0.960
atomic mag. moment =    -3.677946
atom    2   Tr[ns(na)] (up, down, total) =   4.83336  1.15541  5.98877
   spin  1
    eigenvalues: 
  0.949  0.965  0.965  0.978  0.978
    eigenvectors:
  0.000  0.059  0.000  0.260  0.681
  0.333  0.186  0.441  0.039  0.000
  0.333  0.129  0.498  0.009  0.031
  0.000  0.000  0.059  0.681  0.260
  0.333  0.626  0.002  0.011  0.028
    occupations:
  0.977 -0.001 -0.001 -0.000 -0.003
 -0.001  0.960 -0.005 -0.002  0.005
 -0.001 -0.005  0.960  0.002  0.005
 -0.000 -0.002  0.002  0.977 -0.000
 -0.003  0.005  0.005 -0.000  0.960
   spin  2
    eigenvalues: 
  0.045  0.045  0.098  0.098  0.871
    eigenvectors:
  0.016  0.000  0.750  0.233  0.000
  0.095  0.560  0.008  0.003  0.333
  0.244  0.412  0.000  0.011  0.333
  0.000  0.016  0.233  0.750  0.000
  0.644  0.011  0.008  0.003  0.333
    occupations:
  0.097  0.003  0.003 -0.000  0.005
  0.003  0.321  0.275  0.005 -0.275
  0.003  0.275  0.321 -0.005 -0.275
 -0.000  0.005 -0.005  0.097 -0.000
  0.005 -0.275 -0.275 -0.000  0.321
atomic mag. moment =     3.677947
N of occupied +U levels =   11.977544
 --- exit write_ns ---
 --- in v_hubbard ---
Hubbard energies (dc, U, total)    9.4423   9.6114   0.1690
 -------

     total cpu time spent up to now is      326.1 secs

     total energy              =    -558.83738996 Ry
     Harris-Foulkes estimate   =    -558.83738995 Ry
     estimated scf accuracy    <       0.00000003 Ry

     total magnetization       =     0.00 Bohr mag/cell
     absolute magnetization    =     7.53 Bohr mag/cell

     iteration # 13     ecut=   360.00 Ry     beta=0.30
     Davidson diagonalization with overlap
     ethr =  5.85E-11,  avg # of iterations =  2.0
 --- enter write_ns ---
 LDA+U parameters:
U(  1) =   4.3000   J(  1) =   0.0000   B(  1) =   0.0000
U(  2) =   4.3000   J(  2) =   0.0000   B(  2) =   0.0000
atom    1   Tr[ns(na)] (up, down, total) =   1.15544  4.83336  5.98879
   spin  1
    eigenvalues: 
  0.045  0.045  0.098  0.098  0.871
    eigenvectors:
  0.016  0.000  0.831  0.153  0.000
  0.270  0.386  0.007  0.004  0.333
  0.077  0.579  0.000  0.011  0.333
  0.000  0.016  0.153  0.831  0.000
  0.636  0.019  0.009  0.002  0.333
    occupations:
  0.097  0.003  0.003 -0.000  0.005
  0.003  0.321  0.275  0.005 -0.275
  0.003  0.275  0.321 -0.005 -0.275
 -0.000  0.005 -0.005  0.097 -0.000
  0.005 -0.275 -0.275 -0.000  0.321
   spin  2
    eigenvalues: 
  0.949  0.965  0.965  0.978  0.978
    eigenvectors:
  0.000  0.059  0.000  0.503  0.438
  0.333  0.170  0.457  0.036  0.003
  0.333  0.144  0.483  0.002  0.037
  0.000  0.000  0.059  0.438  0.503
  0.333  0.627  0.000  0.021  0.018
    occupations:
  0.977 -0.001 -0.001 -0.000 -0.003
 -0.001  0.960 -0.005 -0.002  0.005
 -0.001 -0.005  0.960  0.002  0.005
 -0.000 -0.002  0.002  0.977 -0.000
 -0.003  0.005  0.005 -0.000  0.960
atomic mag. moment =    -3.677917
atom    2   Tr[ns(na)] (up, down, total) =   4.83336  1.15544  5.98880
   spin  1
    eigenvalues: 
  0.949  0.965  0.965  0.978  0.978
    eigenvectors:
  0.000  0.058  0.001  0.000  0.941
  0.333  0.243  0.385  0.030  0.010
  0.333  0.085  0.543  0.030  0.010
  0.000  0.001  0.058  0.941  0.000
  0.333  0.614  0.014  0.000  0.039
    occupations:
  0.977 -0.001 -0.001 -0.000 -0.003
 -0.001  0.960 -0.005 -0.002  0.005
 -0.001 -0.005  0.960  0.002  0.005
 -0.000 -0.002  0.002  0.977 -0.000
 -0.003  0.005  0.005 -0.000  0.960
   spin  2
    eigenvalues: 
  0.045  0.045  0.098  0.098  0.871
    eigenvectors:
  0.015  0.002  0.704  0.280  0.000
  0.029  0.627  0.008  0.002  0.333
  0.360  0.296  0.000  0.011  0.333
  0.002  0.015  0.280  0.704  0.000
  0.594  0.061  0.008  0.003  0.333
    occupations:
  0.097  0.003  0.003 -0.000  0.005
  0.003  0.321  0.275  0.005 -0.275
  0.003  0.275  0.321 -0.005 -0.275
 -0.000  0.005 -0.005  0.097 -0.000
  0.005 -0.275 -0.275 -0.000  0.321
atomic mag. moment =     3.677916
N of occupied +U levels =   11.977590
 --- exit write_ns ---
 --- in v_hubbard ---
Hubbard energies (dc, U, total)    9.4424   9.6114   0.1690
 -------

     total cpu time spent up to now is      350.7 secs

     total energy              =    -558.83738997 Ry
     Harris-Foulkes estimate   =    -558.83738997 Ry
     estimated scf accuracy    <          3.7E-09 Ry

     total magnetization       =     0.00 Bohr mag/cell
     absolute magnetization    =     7.53 Bohr mag/cell

     iteration # 14     ecut=   360.00 Ry     beta=0.30
     Davidson diagonalization with overlap
     ethr =  8.45E-12,  avg # of iterations =  2.0
 --- enter write_ns ---
 LDA+U parameters:
U(  1) =   4.3000   J(  1) =   0.0000   B(  1) =   0.0000
U(  2) =   4.3000   J(  2) =   0.0000   B(  2) =   0.0000
atom    1   Tr[ns(na)] (up, down, total) =   1.15544  4.83335  5.98880
   spin  1
    eigenvalues: 
  0.045  0.045  0.098  0.098  0.871
    eigenvectors:
  0.006  0.010  0.792  0.192  0.000
  0.644  0.012  0.007  0.003  0.333
  0.095  0.561  0.000  0.011  0.333
  0.010  0.006  0.192  0.792  0.000
  0.244  0.411  0.009  0.002  0.333
    occupations:
  0.097  0.003  0.003 -0.000  0.005
  0.003  0.321  0.275  0.005 -0.275
  0.003  0.275  0.321 -0.005 -0.275
 -0.000  0.005 -0.005  0.097 -0.000
  0.005 -0.275 -0.275 -0.000  0.321
   spin  2
    eigenvalues: 
  0.949  0.965  0.965  0.978  0.978
    eigenvectors:
  0.000  0.058  0.001  0.176  0.765
  0.333  0.222  0.405  0.039  0.000
  0.333  0.100  0.528  0.013  0.027
  0.000  0.001  0.058  0.765  0.176
  0.333  0.619  0.008  0.007  0.032
    occupations:
  0.977 -0.001 -0.001 -0.000 -0.003
 -0.001  0.960 -0.005 -0.002  0.005
 -0.001 -0.005  0.960  0.002  0.005
 -0.000 -0.002  0.002  0.977 -0.000
 -0.003  0.005  0.005 -0.000  0.960
atomic mag. moment =    -3.677909
atom    2   Tr[ns(na)] (up, down, total) =   4.83335  1.15544  5.98880
   spin  1
    eigenvalues: 
  0.949  0.965  0.965  0.978  0.978
    eigenvectors:
  0.000  0.059  0.000  0.639  0.302
  0.333  0.198  0.429  0.032  0.007
  0.333  0.119  0.508  0.000  0.039
  0.000  0.000  0.059  0.302  0.639
  0.333  0.624  0.003  0.027  0.013
    occupations:
  0.977 -0.001 -0.001 -0.000 -0.003
 -0.001  0.960 -0.005 -0.002  0.005
 -0.001 -0.005  0.960  0.002  0.005
 -0.000 -0.002  0.002  0.977 -0.000
 -0.003  0.005  0.005 -0.000  0.960
   spin  2
    eigenvalues: 
  0.045  0.045  0.098  0.098  0.871
    eigenvectors:
  0.011  0.005  0.767  0.217  0.000
  0.004  0.652  0.008  0.003  0.333
  0.534  0.122  0.000  0.011  0.333
  0.005  0.011  0.217  0.767  0.000
  0.446  0.210  0.008  0.002  0.333
    occupations:
  0.097  0.003  0.003 -0.000  0.005
  0.003  0.321  0.275  0.005 -0.275
  0.003  0.275  0.321 -0.005 -0.275
 -0.000  0.005 -0.005  0.097 -0.000
  0.005 -0.275 -0.275 -0.000  0.321
atomic mag. moment =     3.677909
N of occupied +U levels =   11.977594
 --- exit write_ns ---
 --- in v_hubbard ---
Hubbard energies (dc, U, total)    9.4424   9.6114   0.1690
 -------

     total cpu time spent up to now is      376.7 secs

     total energy              =    -558.83738997 Ry
     Harris-Foulkes estimate   =    -558.83738997 Ry
     estimated scf accuracy    <          1.4E-10 Ry

     total magnetization       =     0.00 Bohr mag/cell
     absolute magnetization    =     7.53 Bohr mag/cell

     iteration # 15     ecut=   360.00 Ry     beta=0.30
     Davidson diagonalization with overlap
     ethr =  3.16E-13,  avg # of iterations =  2.0
 --- enter write_ns ---
 LDA+U parameters:
U(  1) =   4.3000   J(  1) =   0.0000   B(  1) =   0.0000
U(  2) =   4.3000   J(  2) =   0.0000   B(  2) =   0.0000
atom    1   Tr[ns(na)] (up, down, total) =   1.15544  4.83335  5.98880
   spin  1
    eigenvalues: 
  0.045  0.045  0.098  0.098  0.871
    eigenvectors:
  0.006  0.011  0.697  0.287  0.000
  0.111  0.544  0.009  0.002  0.333
  0.649  0.006  0.000  0.011  0.333
  0.011  0.006  0.287  0.697  0.000
  0.223  0.433  0.008  0.003  0.333
    occupations:
  0.097  0.003  0.003 -0.000  0.005
  0.003  0.321  0.275  0.005 -0.275
  0.003  0.275  0.321 -0.005 -0.275
 -0.000  0.005 -0.005  0.097 -0.000
  0.005 -0.275 -0.275 -0.000  0.321
   spin  2
    eigenvalues: 
  0.949  0.965  0.965  0.978  0.978
    eigenvectors:
  0.000  0.059  0.000  0.470  0.470
  0.333  0.182  0.445  0.037  0.003
  0.333  0.133  0.494  0.003  0.037
  0.000  0.000  0.059  0.470  0.470
  0.333  0.626  0.001  0.020  0.020
    occupations:
  0.977 -0.001 -0.001 -0.000 -0.003
 -0.001  0.960 -0.005 -0.002  0.005
 -0.001 -0.005  0.960  0.002  0.005
 -0.000 -0.002  0.002  0.977 -0.000
 -0.003  0.005  0.005 -0.000  0.960
atomic mag. moment =    -3.677909
atom    2   Tr[ns(na)] (up, down, total) =   4.83335  1.15544  5.98880
   spin  1
    eigenvalues: 
  0.949  0.965  0.965  0.978  0.978
    eigenvectors:
  0.000  0.059  0.000  0.191  0.750
  0.333  0.190  0.438  0.039  0.000
  0.333  0.126  0.501  0.012  0.028
  0.000  0.000  0.059  0.750  0.191
  0.333  0.625  0.002  0.008  0.031
    occupations:
  0.977 -0.001 -0.001 -0.000 -0.003
 -0.001  0.960 -0.005 -0.002  0.005
 -0.001 -0.005  0.960  0.002  0.005
 -0.000 -0.002  0.002  0.977 -0.000
 -0.003  0.005  0.005 -0.000  0.960
   spin  2
    eigenvalues: 
  0.045  0.045  0.098  0.098  0.871
    eigenvectors:
  0.000  0.016  0.685  0.298  0.000
  0.465  0.191  0.009  0.002  0.333
  0.518  0.138  0.000  0.011  0.333
  0.016  0.000  0.298  0.685  0.000
  0.001  0.654  0.008  0.003  0.333
    occupations:
  0.097  0.003  0.003 -0.000  0.005
  0.003  0.321  0.275  0.005 -0.275
  0.003  0.275  0.321 -0.005 -0.275
 -0.000  0.005 -0.005  0.097 -0.000
  0.005 -0.275 -0.275 -0.000  0.321
atomic mag. moment =     3.677909
N of occupied +U levels =   11.977595
 --- exit write_ns ---
 --- in v_hubbard ---
Hubbard energies (dc, U, total)    9.4424   9.6114   0.1690
 -------
 
     Magnetic moment per site:
     atom:    1    charge:    1.0980    magn:   -0.3520    constr:    0.0000
     atom:    2    charge:    1.0980    magn:    0.3520    constr:    0.0000
     atom:    3    charge:    0.3857    magn:    0.0000    constr:    0.0000
     atom:    4    charge:    0.3857    magn:    0.0000    constr:    0.0000

     total cpu time spent up to now is      399.7 secs

     End of self-consistent calculation

 ------ SPIN UP ------------


          k = 0.0043 0.0043 0.0043 ( 31607 PWs)   bands (ev):

   -75.5508 -70.7836 -42.5775 -42.5775 -40.8930 -37.5582 -37.5582 -36.9356
    -5.6339  -4.9059   5.1226   6.9605   6.9605   8.2976   8.2976   8.6886
     9.6100  11.4030  11.6600  11.6600  11.9553  11.9553  14.5733  15.6281
    15.6281  17.5614  17.5614  19.7598  20.8681  27.3936  29.1220  31.0741

     occupation numbers 
     1.0000   1.0000   1.0000   1.0000   1.0000   1.0000   1.0000   1.0000
     1.0000   1.0000   1.0000   1.0000   1.0000   1.0000   1.0000   1.0000
     1.0000   1.0000   1.0000   1.0000   1.0000   1.0000   0.0000   0.0000
     0.0000   0.0000   0.0000   0.0000   0.0000   0.0000   0.0000   0.0000

          k =-0.0077-0.0077 0.0367 ( 31626 PWs)   bands (ev):

   -75.5477 -70.7799 -42.6020 -42.5835 -40.8893 -37.5896 -37.5658 -36.9309
    -5.3169  -4.7639   5.6695   6.7757   7.2281   7.7489   8.1472   8.9792
     9.5845  10.5293  11.1099  11.5470  11.6747  11.8283  15.3065  15.8267
    15.8662  17.5773  17.6388  19.7561  22.2537  26.8056  27.8990  28.9404

     occupation numbers 
     1.0000   1.0000   1.0000   1.0000   1.0000   1.0000   1.0000   1.0000
     1.0000   1.0000   1.0000   1.0000   1.0000   1.0000   1.0000   1.0000
     1.0000   1.0000   1.0000   1.0000   1.0000   1.0000   0.0000   0.0000
     0.0000   0.0000   0.0000   0.0000   0.0000   0.0000   0.0000   0.0000

          k =-0.0196-0.0196 0.0692 ( 31684 PWs)   bands (ev):

   -75.5414 -70.7725 -42.6507 -42.5957 -40.8818 -37.6522 -37.5811 -36.9215
    -4.6602  -4.3918   5.8780   6.7121   7.5426   7.6620   8.0490   8.4598
     8.7016  10.3905  10.6496  10.9442  11.9255  12.1262  15.0854  16.4383
    16.4996  17.7250  18.6776  19.6582  23.2839  24.1624  25.0191  27.5196

     occupation numbers 
     1.0000   1.0000   1.0000   1.0000   1.0000   1.0000   1.0000   1.0000
     1.0000   1.0000   1.0000   1.0000   1.0000   1.0000   1.0000   1.0000
     1.0000   1.0000   1.0000   1.0000   1.0000   1.0000   0.0000   0.0000
     0.0000   0.0000   0.0000   0.0000   0.0000   0.0000   0.0000   0.0000

          k = 0.0401 0.0401-0.0931 ( 31680 PWs)   bands (ev):

   -75.5383 -70.7688 -42.6749 -42.6017 -40.8780 -37.6833 -37.5887 -36.9169
    -4.2950  -4.1793   5.7985   6.3132   7.2750   7.6135   8.2558   8.3426
     8.5194  10.5856  10.5958  11.0708  11.9815  12.2223  15.1952  16.7726
    16.8730  17.7446  19.3364  20.2308  20.6712  22.4406  25.8439  26.3758

     occupation numbers 
     1.0000   1.0000   1.0000   1.0000   1.0000   1.0000   1.0000   1.0000
     1.0000   1.0000   1.0000   1.0000   1.0000   1.0000   1.0000   1.0000
     1.0000   1.0000   1.0000   1.0000   1.0000   1.0000   0.0000   0.0000
     0.0000   0.0000   0.0000   0.0000   0.0000   0.0000   0.0000   0.0000

          k = 0.0282 0.0282-0.0606 ( 31694 PWs)   bands (ev):

   -75.5414 -70.7725 -42.6507 -42.5957 -40.8818 -37.6522 -37.5811 -36.9215
    -4.6538  -4.4004   6.0203   6.7494   7.3000   7.6689   8.0469   8.3878
     8.7076  10.2726  10.8684  11.0318  12.0006  12.0185  15.1072  16.4238
    16.6773  17.7074  18.2260  19.7901  23.3899  24.1800  25.0164  27.6756

     occupation numbers 
     1.0000   1.0000   1.0000   1.0000   1.0000   1.0000   1.0000   1.0000
     1.0000   1.0000   1.0000   1.0000   1.0000   1.0000   1.0000   1.0000
     1.0000   1.0000   1.0000   1.0000   1.0000   1.0000   0.0000   0.0000
     0.0000   0.0000   0.0000   0.0000   0.0000   0.0000   0.0000   0.0000

          k = 0.0162 0.0162-0.0282 ( 31655 PWs)   bands (ev):

   -75.5477 -70.7799 -42.6020 -42.5835 -40.8893 -37.5896 -37.5658 -36.9309
    -5.3375  -4.7396   5.6395   6.6998   7.2291   7.8472   8.1521   9.0686
     9.6164  10.3426  11.2885  11.3524  11.5804  12.0417  15.3304  15.8036
    15.8575  17.4596  17.6116  19.9150  22.0982  27.0304  28.1398  28.8591

     occupation numbers 
     1.0000   1.0000   1.0000   1.0000   1.0000   1.0000   1.0000   1.0000
     1.0000   1.0000   1.0000   1.0000   1.0000   1.0000   1.0000   1.0000
     1.0000   1.0000   1.0000   1.0000   1.0000   1.0000   0.0000   0.0000
     0.0000   0.0000   0.0000   0.0000   0.0000   0.0000   0.0000   0.0000

          k =-0.0196 0.0248 0.0248 ( 31645 PWs)   bands (ev):

   -75.5477 -70.7799 -42.6020 -42.5835 -40.8893 -37.5896 -37.5658 -36.9309
    -5.2844  -4.8028   5.8522   6.6190   7.2335   7.8211   8.1545   8.8647
     9.3664  10.5431  11.2228  11.2869  11.7408  12.1909  15.2062  15.8392
    16.1725  17.4092  17.5962  19.4225  22.6376  26.2320  28.3186  29.1495

     occupation numbers 
     1.0000   1.0000   1.0000   1.0000   1.0000   1.0000   1.0000   1.0000
     1.0000   1.0000   1.0000   1.0000   1.0000   1.0000   1.0000   1.0000
     1.0000   1.0000   1.0000   1.0000   1.0000   1.0000   0.0000   0.0000
     0.0000   0.0000   0.0000   0.0000   0.0000   0.0000   0.0000   0.0000

          k =-0.0316 0.0128 0.0572 ( 31676 PWs)   bands (ev):

   -75.5430 -70.7743 -42.6339 -42.5973 -40.8836 -37.6307 -37.5831 -36.9239
    -4.7892  -4.5419   6.1705   6.7599   7.3295   7.4531   7.9730   8.8135
     9.2714   9.7918  10.7181  11.2406  11.4862  12.3215  14.9188  16.1922
    16.8448  17.5975  18.2143  19.5157  24.1953  25.5681  25.7577  27.0812

     occupation numbers 
     1.0000   1.0000   1.0000   1.0000   1.0000   1.0000   1.0000   1.0000
     1.0000   1.0000   1.0000   1.0000   1.0000   1.0000   1.0000   1.0000
     1.0000   1.0000   1.0000   1.0000   1.0000   1.0000   0.0000   0.0000
     0.0000   0.0000   0.0000   0.0000   0.0000   0.0000   0.0000   0.0000

          k = 0.0282 0.0726-0.1051 ( 31693 PWs)   bands (ev):

   -75.5383 -70.7688 -42.6626 -42.6142 -40.8780 -37.6674 -37.6047 -36.9169
    -4.3030  -4.1841   6.0732   6.5603   7.1381   7.3116   8.1215   8.4661
     8.9676  10.0705  10.6724  11.0093  11.1822  12.7462  15.0623  16.3552
    17.1938  17.5915  19.5425  20.0584  22.0603  23.6801  24.6082  25.7739

     occupation numbers 
     1.0000   1.0000   1.0000   1.0000   1.0000   1.0000   1.0000   1.0000
     1.0000   1.0000   1.0000   1.0000   1.0000   1.0000   1.0000   1.0000
     1.0000   1.0000   1.0000   1.0000   1.0000   1.0000   0.0000   0.0000
     0.0000   0.0000   0.0000   0.0000   0.0000   0.0000   0.0000   0.0000

          k = 0.0162 0.0606-0.0726 ( 31707 PWs)   bands (ev):

   -75.5383 -70.7688 -42.6626 -42.6142 -40.8780 -37.6674 -37.6047 -36.9169
    -4.2722  -4.2168   6.1773   6.5328   7.0970   7.2426   8.2167   8.4388
     8.9318  10.0667  10.5901  10.9260  11.4059  12.6134  15.1696  16.3068
    17.2446  17.7718  18.9211  20.4130  22.3067  23.6264  24.6810  25.8347

     occupation numbers 
     1.0000   1.0000   1.0000   1.0000   1.0000   1.0000   1.0000   1.0000
     1.0000   1.0000   1.0000   1.0000   1.0000   1.0000   1.0000   1.0000
     1.0000   1.0000   1.0000   1.0000   1.0000   1.0000   0.0000   0.0000
     0.0000   0.0000   0.0000   0.0000   0.0000   0.0000   0.0000   0.0000

          k = 0.0043 0.0487-0.0401 ( 31706 PWs)   bands (ev):

   -75.5430 -70.7743 -42.6339 -42.5973 -40.8836 -37.6307 -37.5831 -36.9239
    -4.8323  -4.4957   6.3288   6.5414   7.4027   7.4409   7.8546   8.8537
     9.2273  10.0407  10.6856  11.2314  11.5326  12.1064  15.0913  16.1940
    16.8208  17.6313  17.8851  19.8239  23.9836  25.5928  25.7226  27.3174

     occupation numbers 
     1.0000   1.0000   1.0000   1.0000   1.0000   1.0000   1.0000   1.0000
     1.0000   1.0000   1.0000   1.0000   1.0000   1.0000   1.0000   1.0000
     1.0000   1.0000   1.0000   1.0000   1.0000   1.0000   0.0000   0.0000
     0.0000   0.0000   0.0000   0.0000   0.0000   0.0000   0.0000   0.0000

          k =-0.0436 0.0453 0.0453 ( 31690 PWs)   bands (ev):

   -75.5414 -70.7725 -42.6507 -42.5957 -40.8818 -37.6522 -37.5811 -36.9215
    -4.5523  -4.5058   5.9715   6.7844   7.3520   7.6633   8.0438   8.1957
     9.0369  10.0026  10.9853  11.0226  11.8801  12.3002  14.7904  16.4170
    17.2016  17.7754  17.8036  19.2909  23.6319  24.9577  25.5365  26.5867

     occupation numbers 
     1.0000   1.0000   1.0000   1.0000   1.0000   1.0000   1.0000   1.0000
     1.0000   1.0000   1.0000   1.0000   1.0000   1.0000   1.0000   1.0000
     1.0000   1.0000   1.0000   1.0000   1.0000   1.0000   0.0000   0.0000
     0.0000   0.0000   0.0000   0.0000   0.0000   0.0000   0.0000   0.0000

          k = 0.0162 0.1051-0.1170 ( 31704 PWs)   bands (ev):

   -75.5383 -70.7688 -42.6626 -42.6142 -40.8780 -37.6674 -37.6047 -36.9169
    -4.2771  -4.2107   6.0034   6.6430   7.1949   7.2344   8.0318   8.4936
     9.2051   9.8065  10.6999  10.9981  11.3309  12.8251  14.9102  16.2090
    17.5919  17.6656  18.7061  19.9821  22.5586  24.1052  24.6020  25.8527

     occupation numbers 
     1.0000   1.0000   1.0000   1.0000   1.0000   1.0000   1.0000   1.0000
     1.0000   1.0000   1.0000   1.0000   1.0000   1.0000   1.0000   1.0000
     1.0000   1.0000   1.0000   1.0000   1.0000   1.0000   0.0000   0.0000
     0.0000   0.0000   0.0000   0.0000   0.0000   0.0000   0.0000   0.0000

          k = 0.0043 0.0931-0.0846 ( 31705 PWs)   bands (ev):

   -75.5367 -70.7670 -42.6461 -42.6461 -40.8761 -37.6457 -37.6457 -36.9145
    -4.0987  -4.0987   6.6508   6.7613   6.7805   6.8704   7.6758   8.6845
     9.2241   9.5398  10.6581  10.8239  11.1475  13.0891  15.5321  15.5953
    17.4994  17.6620  20.6289  20.8730  22.0252  22.9089  23.3165  23.7779

     occupation numbers 
     1.0000   1.0000   1.0000   1.0000   1.0000   1.0000   1.0000   1.0000
     1.0000   1.0000   1.0000   1.0000   1.0000   1.0000   1.0000   1.0000
     1.0000   1.0000   1.0000   1.0000   1.0000   1.0000   0.0000   0.0000
     0.0000   0.0000   0.0000   0.0000   0.0000   0.0000   0.0000   0.0000

          k =-0.0077 0.0812-0.0521 ( 31706 PWs)   bands (ev):

   -75.5383 -70.7688 -42.6626 -42.6142 -40.8780 -37.6674 -37.6047 -36.9169
    -4.2941  -4.1940   6.1698   6.5190   7.0774   7.2958   8.2567   8.3990
     8.8757  10.1590  10.6039  10.9369  11.2853  12.6413  15.1853  16.3740
    17.1419  17.6195  19.4170  20.3394  22.0762  23.4776  24.6433  25.7829

     occupation numbers 
     1.0000   1.0000   1.0000   1.0000   1.0000   1.0000   1.0000   1.0000
     1.0000   1.0000   1.0000   1.0000   1.0000   1.0000   1.0000   1.0000
     1.0000   1.0000   1.0000   1.0000   1.0000   1.0000   0.0000   0.0000
     0.0000   0.0000   0.0000   0.0000   0.0000   0.0000   0.0000   0.0000

          k = 0.0760-0.0572-0.0572 ( 31704 PWs)   bands (ev):

   -75.5383 -70.7688 -42.6749 -42.6017 -40.8780 -37.6833 -37.5887 -36.9168
    -4.3133  -4.1590   5.5864   6.4186   7.4329   7.5944   7.9378   8.3424
     9.0192  10.3902  10.8053  11.0434  11.7339  12.4401  15.0213  16.7833
    17.0773  17.8492  17.9653  19.9655  21.4803  23.6538  25.9527  26.2577

     occupation numbers 
     1.0000   1.0000   1.0000   1.0000   1.0000   1.0000   1.0000   1.0000
     1.0000   1.0000   1.0000   1.0000   1.0000   1.0000   1.0000   1.0000
     1.0000   1.0000   1.0000   1.0000   1.0000   1.0000   0.0000   0.0000
     0.0000   0.0000   0.0000   0.0000   0.0000   0.0000   0.0000   0.0000

          k = 0.0641-0.0692-0.0248 ( 31714 PWs)   bands (ev):

   -75.5383 -70.7688 -42.6626 -42.6142 -40.8780 -37.6674 -37.6047 -36.9169
    -4.2527  -4.2362   6.0774   6.6253   7.1314   7.2170   8.1102   8.4779
     9.1186   9.8485  10.6566  11.0334  11.3493  12.7139  15.0313  16.2318
    17.4512  17.8551  18.5690  20.1825  22.5495  23.9372  24.6722  25.8796

     occupation numbers 
     1.0000   1.0000   1.0000   1.0000   1.0000   1.0000   1.0000   1.0000
     1.0000   1.0000   1.0000   1.0000   1.0000   1.0000   1.0000   1.0000
     1.0000   1.0000   1.0000   1.0000   1.0000   1.0000   0.0000   0.0000
     0.0000   0.0000   0.0000   0.0000   0.0000   0.0000   0.0000   0.0000

          k = 0.0521-0.0367-0.0367 ( 31696 PWs)   bands (ev):

   -75.5414 -70.7725 -42.6507 -42.5957 -40.8818 -37.6522 -37.5811 -36.9215
    -4.6141  -4.4430   6.0739   6.8427   7.1315   7.6696   8.0442   8.2570
     8.8821  10.1298  10.8854  11.1581  11.9992  12.0965  14.9528  16.4130
    17.0934  17.7328  17.7646  19.5595  23.5882  24.6143  25.0870  27.3754

     occupation numbers 
     1.0000   1.0000   1.0000   1.0000   1.0000   1.0000   1.0000   1.0000
     1.0000   1.0000   1.0000   1.0000   1.0000   1.0000   1.0000   1.0000
     1.0000   1.0000   1.0000   1.0000   1.0000   1.0000   0.0000   0.0000
     0.0000   0.0000   0.0000   0.0000   0.0000   0.0000   0.0000   0.0000

          k = 0.0128 0.0128 0.0128 ( 31607 PWs)   bands (ev):

   -75.5508 -70.7836 -42.5775 -42.5775 -40.8930 -37.5582 -37.5582 -36.9356
    -5.5459  -5.0142   5.4630   6.9646   6.9646   7.9522   8.3019   8.3019
     9.6966  11.4150  11.4150  11.5699  12.2247  12.2247  15.1758  15.6083
    15.6083  17.5385  17.5385  18.6516  21.9244  25.8173  30.9295  31.4160

     occupation numbers 
     1.0000   1.0000   1.0000   1.0000   1.0000   1.0000   1.0000   1.0000
     1.0000   1.0000   1.0000   1.0000   1.0000   1.0000   1.0000   1.0000
     1.0000   1.0000   1.0000   1.0000   1.0000   1.0000   0.0000   0.0000
     0.0000   0.0000   0.0000   0.0000   0.0000   0.0000   0.0000   0.0000

          k = 0.0009 0.0009 0.0453 ( 31626 PWs)   bands (ev):

   -75.5477 -70.7799 -42.6020 -42.5835 -40.8893 -37.5896 -37.5658 -36.9309
    -5.2271  -4.8675   5.9085   6.8555   7.2315   7.5045   8.1447   8.7332
     9.4115  10.8230  10.9592  11.5026  11.8730  11.8874  15.1511  15.8575
    16.1720  17.6502  17.8044  19.0341  23.0044  25.6841  27.9837  29.6139

     occupation numbers 
     1.0000   1.0000   1.0000   1.0000   1.0000   1.0000   1.0000   1.0000
     1.0000   1.0000   1.0000   1.0000   1.0000   1.0000   1.0000   1.0000
     1.0000   1.0000   1.0000   1.0000   1.0000   1.0000   0.0000   0.0000
     0.0000   0.0000   0.0000   0.0000   0.0000   0.0000   0.0000   0.0000

          k = 0.0606 0.0606-0.1170 ( 31669 PWs)   bands (ev):

   -75.5414 -70.7725 -42.6507 -42.5957 -40.8818 -37.6522 -37.5811 -36.9215
    -4.6324  -4.4206   5.8038   6.6994   7.6559   7.6894   8.0484   8.3407
     8.9335  10.1539  10.6370  11.0621  11.7886  12.2964  14.8918  16.4413
    16.6198  17.7682  18.9290  19.1637  23.3511  24.6787  25.0447  27.0430

     occupation numbers 
     1.0000   1.0000   1.0000   1.0000   1.0000   1.0000   1.0000   1.0000
     1.0000   1.0000   1.0000   1.0000   1.0000   1.0000   1.0000   1.0000
     1.0000   1.0000   1.0000   1.0000   1.0000   1.0000   0.0000   0.0000
     0.0000   0.0000   0.0000   0.0000   0.0000   0.0000   0.0000   0.0000

          k = 0.0487 0.0487-0.0846 ( 31678 PWs)   bands (ev):

   -75.5383 -70.7688 -42.6749 -42.6017 -40.8780 -37.6833 -37.5887 -36.9169
    -4.3048  -4.1685   5.6847   6.3614   7.3777   7.6039   8.0471   8.3425
     8.7937  10.5020  10.6904  11.0542  11.8677  12.3323  15.1092  16.7782
    16.9463  17.7967  18.5239  20.2440  21.0124  23.1063  25.8899  26.3319

     occupation numbers 
     1.0000   1.0000   1.0000   1.0000   1.0000   1.0000   1.0000   1.0000
     1.0000   1.0000   1.0000   1.0000   1.0000   1.0000   1.0000   1.0000
     1.0000   1.0000   1.0000   1.0000   1.0000   1.0000   0.0000   0.0000
     0.0000   0.0000   0.0000   0.0000   0.0000   0.0000   0.0000   0.0000

          k =-0.0111 0.0333 0.0333 ( 31645 PWs)   bands (ev):

   -75.5477 -70.7799 -42.6020 -42.5835 -40.8893 -37.5896 -37.5658 -36.9309
    -5.1687  -4.9321   6.2429   6.5173   7.2369   7.6029   8.1519   8.5655
     9.3225  10.6982  11.2079  11.2145  11.9314  12.2062  15.1141  15.8302
    16.5720  17.5242  17.6077  18.7766  23.4732  25.1503  28.4448  29.0628

     occupation numbers 
     1.0000   1.0000   1.0000   1.0000   1.0000   1.0000   1.0000   1.0000
     1.0000   1.0000   1.0000   1.0000   1.0000   1.0000   1.0000   1.0000
     1.0000   1.0000   1.0000   1.0000   1.0000   1.0000   0.0000   0.0000
     0.0000   0.0000   0.0000   0.0000   0.0000   0.0000   0.0000   0.0000

          k = 0.0487 0.0931-0.1290 ( 31661 PWs)   bands (ev):

   -75.5430 -70.7743 -42.6339 -42.5973 -40.8836 -37.6307 -37.5831 -36.9239
    -4.7149  -4.6194   6.0879   6.9163   7.2494   7.4643   8.1160   8.7848
     9.2938   9.5431  10.7848  11.0995  11.6008  12.4757  14.7557  16.1879
    16.8703  17.6170  18.6252  19.0725  24.4512  25.4742  25.8000  26.7252

     occupation numbers 
     1.0000   1.0000   1.0000   1.0000   1.0000   1.0000   1.0000   1.0000
     1.0000   1.0000   1.0000   1.0000   1.0000   1.0000   1.0000   1.0000
[...]
     0.0000   0.0000   0.0000   0.0000   0.0000   0.0000   0.0000   0.0000

          k = 0.0282 0.0282-0.0606 ( 31694 PWs)   bands (ev):

   -75.5414 -70.7725 -42.6507 -42.5956 -40.8818 -37.6522 -37.5811 -36.9215
    -4.6538  -4.4004   6.0203   6.7494   7.3000   7.6689   8.0469   8.3878
     8.7076  10.2726  10.8684  11.0318  12.0006  12.0185  15.1072  16.4238
    16.6773  17.7074  18.2260  19.7901  23.3899  24.1800  25.0164  27.6756

     occupation numbers 
     1.0000   1.0000   1.0000   1.0000   1.0000   1.0000   1.0000   1.0000
     1.0000   1.0000   1.0000   1.0000   1.0000   1.0000   1.0000   1.0000
     1.0000   1.0000   1.0000   1.0000   1.0000   1.0000   0.0000   0.0000
     0.0000   0.0000   0.0000   0.0000   0.0000   0.0000   0.0000   0.0000

          k = 0.0162 0.0162-0.0282 ( 31655 PWs)   bands (ev):

   -75.5477 -70.7799 -42.6020 -42.5835 -40.8893 -37.5896 -37.5658 -36.9309
    -5.3375  -4.7396   5.6395   6.6998   7.2291   7.8472   8.1521   9.0686
     9.6164  10.3426  11.2885  11.3524  11.5804  12.0417  15.3304  15.8036
    15.8575  17.4595  17.6116  19.9150  22.0982  27.0304  28.1398  28.8591

     occupation numbers 
     1.0000   1.0000   1.0000   1.0000   1.0000   1.0000   1.0000   1.0000
     1.0000   1.0000   1.0000   1.0000   1.0000   1.0000   1.0000   1.0000
     1.0000   1.0000   1.0000   1.0000   1.0000   1.0000   0.0000   0.0000
     0.0000   0.0000   0.0000   0.0000   0.0000   0.0000   0.0000   0.0000

          k =-0.0196 0.0248 0.0248 ( 31645 PWs)   bands (ev):

   -75.5477 -70.7799 -42.6020 -42.5835 -40.8893 -37.5896 -37.5658 -36.9309
    -5.2844  -4.8028   5.8522   6.6190   7.2335   7.8211   8.1545   8.8647
     9.3664  10.5431  11.2228  11.2869  11.7408  12.1909  15.2062  15.8392
    16.1725  17.4092  17.5962  19.4225  22.6376  26.2320  28.3186  29.1495

     occupation numbers 
     1.0000   1.0000   1.0000   1.0000   1.0000   1.0000   1.0000   1.0000
     1.0000   1.0000   1.0000   1.0000   1.0000   1.0000   1.0000   1.0000
     1.0000   1.0000   1.0000   1.0000   1.0000   1.0000   0.0000   0.0000
     0.0000   0.0000   0.0000   0.0000   0.0000   0.0000   0.0000   0.0000

          k =-0.0316 0.0128 0.0572 ( 31676 PWs)   bands (ev):

   -75.5430 -70.7743 -42.6339 -42.5973 -40.8836 -37.6307 -37.5831 -36.9239
    -4.7892  -4.5419   6.1705   6.7599   7.3295   7.4531   7.9730   8.8135
     9.2714   9.7918  10.7181  11.2406  11.4862  12.3215  14.9188  16.1922
    16.8448  17.5975  18.2143  19.5157  24.1953  25.5681  25.7577  27.0812

     occupation numbers 
     1.0000   1.0000   1.0000   1.0000   1.0000   1.0000   1.0000   1.0000
     1.0000   1.0000   1.0000   1.0000   1.0000   1.0000   1.0000   1.0000
     1.0000   1.0000   1.0000   1.0000   1.0000   1.0000   0.0000   0.0000
     0.0000   0.0000   0.0000   0.0000   0.0000   0.0000   0.0000   0.0000

          k = 0.0282 0.0726-0.1051 ( 31693 PWs)   bands (ev):

   -75.5383 -70.7688 -42.6626 -42.6142 -40.8780 -37.6674 -37.6047 -36.9169
    -4.3030  -4.1841   6.0732   6.5603   7.1381   7.3116   8.1215   8.4661
     8.9676  10.0705  10.6724  11.0093  11.1822  12.7462  15.0623  16.3552
    17.1938  17.5915  19.5425  20.0584  22.0603  23.6801  24.6082  25.7739

     occupation numbers 
     1.0000   1.0000   1.0000   1.0000   1.0000   1.0000   1.0000   1.0000
     1.0000   1.0000   1.0000   1.0000   1.0000   1.0000   1.0000   1.0000
     1.0000   1.0000   1.0000   1.0000   1.0000   1.0000   0.0000   0.0000
     0.0000   0.0000   0.0000   0.0000   0.0000   0.0000   0.0000   0.0000

          k = 0.0162 0.0606-0.0726 ( 31707 PWs)   bands (ev):

   -75.5383 -70.7688 -42.6626 -42.6142 -40.8780 -37.6674 -37.6047 -36.9169
    -4.2722  -4.2168   6.1773   6.5328   7.0970   7.2426   8.2167   8.4388
     8.9318  10.0667  10.5901  10.9260  11.4059  12.6134  15.1696  16.3068
    17.2446  17.7718  18.9211  20.4130  22.3067  23.6264  24.6810  25.8347

     occupation numbers 
     1.0000   1.0000   1.0000   1.0000   1.0000   1.0000   1.0000   1.0000
     1.0000   1.0000   1.0000   1.0000   1.0000   1.0000   1.0000   1.0000
     1.0000   1.0000   1.0000   1.0000   1.0000   1.0000   0.0000   0.0000
     0.0000   0.0000   0.0000   0.0000   0.0000   0.0000   0.0000   0.0000

          k = 0.0043 0.0487-0.0401 ( 31706 PWs)   bands (ev):

   -75.5430 -70.7743 -42.6339 -42.5973 -40.8836 -37.6307 -37.5831 -36.9239
    -4.8323  -4.4957   6.3288   6.5414   7.4027   7.4409   7.8546   8.8537
     9.2273  10.0407  10.6856  11.2314  11.5326  12.1064  15.0913  16.1940
    16.8208  17.6313  17.8851  19.8239  23.9836  25.5928  25.7226  27.3174

     occupation numbers 
     1.0000   1.0000   1.0000   1.0000   1.0000   1.0000   1.0000   1.0000
     1.0000   1.0000   1.0000   1.0000   1.0000   1.0000   1.0000   1.0000
     1.0000   1.0000   1.0000   1.0000   1.0000   1.0000   0.0000   0.0000
     0.0000   0.0000   0.0000   0.0000   0.0000   0.0000   0.0000   0.0000

          k =-0.0436 0.0453 0.0453 ( 31690 PWs)   bands (ev):

   -75.5414 -70.7725 -42.6507 -42.5956 -40.8818 -37.6522 -37.5811 -36.9215
    -4.5523  -4.5058   5.9715   6.7844   7.3520   7.6633   8.0438   8.1957
     9.0369  10.0026  10.9853  11.0226  11.8801  12.3002  14.7904  16.4170
    17.2016  17.7754  17.8036  19.2909  23.6319  24.9577  25.5365  26.5867

     occupation numbers 
     1.0000   1.0000   1.0000   1.0000   1.0000   1.0000   1.0000   1.0000
     1.0000   1.0000   1.0000   1.0000   1.0000   1.0000   1.0000   1.0000
     1.0000   1.0000   1.0000   1.0000   1.0000   1.0000   0.0000   0.0000
     0.0000   0.0000   0.0000   0.0000   0.0000   0.0000   0.0000   0.0000

          k = 0.0162 0.1051-0.1170 ( 31704 PWs)   bands (ev):

   -75.5383 -70.7688 -42.6626 -42.6142 -40.8780 -37.6674 -37.6047 -36.9169
    -4.2771  -4.2107   6.0034   6.6430   7.1949   7.2344   8.0318   8.4936
     9.2051   9.8065  10.6999  10.9981  11.3309  12.8251  14.9102  16.2090
    17.5919  17.6656  18.7061  19.9821  22.5586  24.1052  24.6021  25.8527

     occupation numbers 
     1.0000   1.0000   1.0000   1.0000   1.0000   1.0000   1.0000   1.0000
     1.0000   1.0000   1.0000   1.0000   1.0000   1.0000   1.0000   1.0000
     1.0000   1.0000   1.0000   1.0000   1.0000   1.0000   0.0000   0.0000
     0.0000   0.0000   0.0000   0.0000   0.0000   0.0000   0.0000   0.0000

          k = 0.0043 0.0931-0.0846 ( 31705 PWs)   bands (ev):

   -75.5367 -70.7670 -42.6460 -42.6460 -40.8761 -37.6457 -37.6457 -36.9145
    -4.0987  -4.0987   6.6508   6.7613   6.7805   6.8704   7.6758   8.6845
     9.2241   9.5398  10.6581  10.8239  11.1475  13.0890  15.5321  15.5953
    17.4994  17.6620  20.6289  20.8730  22.0252  22.9089  23.3165  23.7779

     occupation numbers 
     1.0000   1.0000   1.0000   1.0000   1.0000   1.0000   1.0000   1.0000
     1.0000   1.0000   1.0000   1.0000   1.0000   1.0000   1.0000   1.0000
     1.0000   1.0000   1.0000   1.0000   1.0000   1.0000   0.0000   0.0000
     0.0000   0.0000   0.0000   0.0000   0.0000   0.0000   0.0000   0.0000

          k =-0.0077 0.0812-0.0521 ( 31706 PWs)   bands (ev):

   -75.5383 -70.7688 -42.6626 -42.6142 -40.8780 -37.6674 -37.6047 -36.9169
    -4.2941  -4.1940   6.1698   6.5190   7.0774   7.2958   8.2567   8.3990
     8.8758  10.1590  10.6039  10.9369  11.2853  12.6413  15.1853  16.3740
    17.1419  17.6195  19.4170  20.3394  22.0762  23.4776  24.6433  25.7829

     occupation numbers 
     1.0000   1.0000   1.0000   1.0000   1.0000   1.0000   1.0000   1.0000
     1.0000   1.0000   1.0000   1.0000   1.0000   1.0000   1.0000   1.0000
     1.0000   1.0000   1.0000   1.0000   1.0000   1.0000   0.0000   0.0000
     0.0000   0.0000   0.0000   0.0000   0.0000   0.0000   0.0000   0.0000

          k = 0.0760-0.0572-0.0572 ( 31704 PWs)   bands (ev):

   -75.5383 -70.7688 -42.6749 -42.6017 -40.8780 -37.6833 -37.5887 -36.9169
    -4.3133  -4.1590   5.5864   6.4186   7.4329   7.5944   7.9378   8.3424
     9.0192  10.3902  10.8053  11.0434  11.7339  12.4401  15.0213  16.7833
    17.0773  17.8492  17.9653  19.9655  21.4803  23.6538  25.9527  26.2577

     occupation numbers 
     1.0000   1.0000   1.0000   1.0000   1.0000   1.0000   1.0000   1.0000
     1.0000   1.0000   1.0000   1.0000   1.0000   1.0000   1.0000   1.0000
     1.0000   1.0000   1.0000   1.0000   1.0000   1.0000   0.0000   0.0000
     0.0000   0.0000   0.0000   0.0000   0.0000   0.0000   0.0000   0.0000

          k = 0.0641-0.0692-0.0248 ( 31714 PWs)   bands (ev):

   -75.5383 -70.7688 -42.6626 -42.6142 -40.8780 -37.6674 -37.6047 -36.9169
    -4.2527  -4.2362   6.0774   6.6253   7.1314   7.2170   8.1102   8.4779
     9.1186   9.8485  10.6567  11.0334  11.3493  12.7139  15.0313  16.2318
    17.4512  17.8551  18.5690  20.1825  22.5495  23.9372  24.6722  25.8796

     occupation numbers 
     1.0000   1.0000   1.0000   1.0000   1.0000   1.0000   1.0000   1.0000
     1.0000   1.0000   1.0000   1.0000   1.0000   1.0000   1.0000   1.0000
     1.0000   1.0000   1.0000   1.0000   1.0000   1.0000   0.0000   0.0000
     0.0000   0.0000   0.0000   0.0000   0.0000   0.0000   0.0000   0.0000

          k = 0.0521-0.0367-0.0367 ( 31696 PWs)   bands (ev):

   -75.5414 -70.7725 -42.6507 -42.5956 -40.8818 -37.6522 -37.5811 -36.9215
    -4.6141  -4.4430   6.0739   6.8427   7.1315   7.6696   8.0442   8.2570
     8.8821  10.1298  10.8854  11.1581  11.9992  12.0965  14.9528  16.4130
    17.0934  17.7328  17.7646  19.5595  23.5882  24.6143  25.0870  27.3754

     occupation numbers 
     1.0000   1.0000   1.0000   1.0000   1.0000   1.0000   1.0000   1.0000
     1.0000   1.0000   1.0000   1.0000   1.0000   1.0000   1.0000   1.0000
     1.0000   1.0000   1.0000   1.0000   1.0000   1.0000   0.0000   0.0000
     0.0000   0.0000   0.0000   0.0000   0.0000   0.0000   0.0000   0.0000

          k = 0.0128 0.0128 0.0128 ( 31607 PWs)   bands (ev):

   -75.5508 -70.7836 -42.5774 -42.5774 -40.8930 -37.5582 -37.5582 -36.9356
    -5.5459  -5.0142   5.4630   6.9646   6.9646   7.9522   8.3019   8.3019
     9.6966  11.4150  11.4150  11.5699  12.2247  12.2247  15.1758  15.6083
    15.6083  17.5385  17.5385  18.6516  21.9244  25.8173  30.9295  31.4160

     occupation numbers 
     1.0000   1.0000   1.0000   1.0000   1.0000   1.0000   1.0000   1.0000
     1.0000   1.0000   1.0000   1.0000   1.0000   1.0000   1.0000   1.0000
     1.0000   1.0000   1.0000   1.0000   1.0000   1.0000   0.0000   0.0000
     0.0000   0.0000   0.0000   0.0000   0.0000   0.0000   0.0000   0.0000

          k = 0.0009 0.0009 0.0453 ( 31626 PWs)   bands (ev):

   -75.5477 -70.7799 -42.6020 -42.5835 -40.8893 -37.5896 -37.5658 -36.9309
    -5.2271  -4.8675   5.9085   6.8555   7.2315   7.5045   8.1447   8.7332
     9.4115  10.8230  10.9592  11.5026  11.8730  11.8874  15.1511  15.8575
    16.1720  17.6502  17.8044  19.0341  23.0044  25.6841  27.9837  29.6139

     occupation numbers 
     1.0000   1.0000   1.0000   1.0000   1.0000   1.0000   1.0000   1.0000
     1.0000   1.0000   1.0000   1.0000   1.0000   1.0000   1.0000   1.0000
     1.0000   1.0000   1.0000   1.0000   1.0000   1.0000   0.0000   0.0000
     0.0000   0.0000   0.0000   0.0000   0.0000   0.0000   0.0000   0.0000

          k = 0.0606 0.0606-0.1170 ( 31669 PWs)   bands (ev):

   -75.5414 -70.7725 -42.6507 -42.5956 -40.8818 -37.6522 -37.5811 -36.9216
    -4.6324  -4.4206   5.8038   6.6994   7.6559   7.6894   8.0484   8.3407
     8.9335  10.1539  10.6370  11.0621  11.7886  12.2964  14.8918  16.4413
    16.6198  17.7682  18.9290  19.1637  23.3511  24.6787  25.0447  27.0430

     occupation numbers 
     1.0000   1.0000   1.0000   1.0000   1.0000   1.0000   1.0000   1.0000
     1.0000   1.0000   1.0000   1.0000   1.0000   1.0000   1.0000   1.0000
     1.0000   1.0000   1.0000   1.0000   1.0000   1.0000   0.0000   0.0000
     0.0000   0.0000   0.0000   0.0000   0.0000   0.0000   0.0000   0.0000

          k = 0.0487 0.0487-0.0846 ( 31678 PWs)   bands (ev):

   -75.5383 -70.7688 -42.6749 -42.6017 -40.8780 -37.6833 -37.5887 -36.9169
    -4.3048  -4.1685   5.6847   6.3614   7.3777   7.6039   8.0471   8.3425
     8.7937  10.5020  10.6904  11.0542  11.8677  12.3323  15.1092  16.7782
    16.9462  17.7967  18.5239  20.2440  21.0124  23.1063  25.8899  26.3319

     occupation numbers 
     1.0000   1.0000   1.0000   1.0000   1.0000   1.0000   1.0000   1.0000
     1.0000   1.0000   1.0000   1.0000   1.0000   1.0000   1.0000   1.0000
     1.0000   1.0000   1.0000   1.0000   1.0000   1.0000   0.0000   0.0000
     0.0000   0.0000   0.0000   0.0000   0.0000   0.0000   0.0000   0.0000

          k =-0.0111 0.0333 0.0333 ( 31645 PWs)   bands (ev):

   -75.5477 -70.7799 -42.6020 -42.5835 -40.8893 -37.5896 -37.5658 -36.9309
    -5.1687  -4.9321   6.2429   6.5173   7.2369   7.6029   8.1519   8.5655
     9.3225  10.6982  11.2079  11.2145  11.9314  12.2062  15.1141  15.8302
    16.5720  17.5242  17.6077  18.7766  23.4732  25.1503  28.4448  29.0628

     occupation numbers 
     1.0000   1.0000   1.0000   1.0000   1.0000   1.0000   1.0000   1.0000
     1.0000   1.0000   1.0000   1.0000   1.0000   1.0000   1.0000   1.0000
     1.0000   1.0000   1.0000   1.0000   1.0000   1.0000   0.0000   0.0000
     0.0000   0.0000   0.0000   0.0000   0.0000   0.0000   0.0000   0.0000

          k = 0.0487 0.0931-0.1290 ( 31661 PWs)   bands (ev):

   -75.5430 -70.7743 -42.6339 -42.5973 -40.8836 -37.6307 -37.5831 -36.9239
    -4.7149  -4.6194   6.0879   6.9163   7.2494   7.4643   8.1160   8.7848
     9.2938   9.5431  10.7848  11.0995  11.6008  12.4757  14.7557  16.1879
    16.8703  17.6170  18.6252  19.0725  24.4512  25.4742  25.8000  26.7252

     occupation numbers 
     1.0000   1.0000   1.0000   1.0000   1.0000   1.0000   1.0000   1.0000
     1.0000   1.0000   1.0000   1.0000   1.0000   1.0000   1.0000   1.0000
     1.0000   1.0000   1.0000   1.0000   1.0000   1.0000   0.0000   0.0000
     0.0000   0.0000   0.0000   0.0000   0.0000   0.0000   0.0000   0.0000

          k = 0.0367 0.0812-0.0965 ( 31699 PWs)   bands (ev):

   -75.5383 -70.7688 -42.6626 -42.6142 -40.8780 -37.6674 -37.6047 -36.9169
    -4.2968  -4.1902   6.0035   6.5991   7.2164   7.2781   8.0248   8.4941
     9.1114   9.9408  10.7305  10.8942  11.3198  12.8325  14.9256  16.2666
    17.3630  17.6557  19.1181  19.9629  22.3151  23.9793  24.5849  25.8031

     occupation numbers 
     1.0000   1.0000   1.0000   1.0000   1.0000   1.0000   1.0000   1.0000
     1.0000   1.0000   1.0000   1.0000   1.0000   1.0000   1.0000   1.0000
     1.0000   1.0000   1.0000   1.0000   1.0000   1.0000   0.0000   0.0000
     0.0000   0.0000   0.0000   0.0000   0.0000   0.0000   0.0000   0.0000

          k = 0.1085-0.0692-0.0692 ( 31678 PWs)   bands (ev):

   -75.5414 -70.7725 -42.6507 -42.5956 -40.8818 -37.6522 -37.5811 -36.9216
    -4.5778  -4.4782   5.8459   6.7157   7.6347   7.6565   8.0459   8.2199
     9.0767   9.9647  10.8218  11.0897  11.7589  12.3792  14.7536  16.4308
    16.8895  17.7933  18.4138  19.1425  23.5112  25.0213  25.5693  26.3461

     occupation numbers 
     1.0000   1.0000   1.0000   1.0000   1.0000   1.0000   1.0000   1.0000
     1.0000   1.0000   1.0000   1.0000   1.0000   1.0000   1.0000   1.0000
     1.0000   1.0000   1.0000   1.0000   1.0000   1.0000   0.0000   0.0000
     0.0000   0.0000   0.0000   0.0000   0.0000   0.0000   0.0000   0.0000

          k = 0.0214 0.0214 0.0214 ( 31616 PWs)   bands (ev):

   -75.5508 -70.7836 -42.5774 -42.5774 -40.8930 -37.5582 -37.5582 -36.9357
    -5.3880  -5.1923   6.0594   6.9688   6.9688   7.0771   8.3063   8.3063
     9.7293  11.2763  11.2763  11.6743  12.3887  12.3887  15.5874  15.5874
    16.1521  17.5013  17.5156  17.5156  23.0791  24.3733  32.0183  32.0183

     occupation numbers 
     1.0000   1.0000   1.0000   1.0000   1.0000   1.0000   1.0000   1.0000
     1.0000   1.0000   1.0000   1.0000   1.0000   1.0000   1.0000   1.0000
     1.0000   1.0000   1.0000   1.0000   1.0000   1.0000   0.0000   0.0000
     0.0000   0.0000   0.0000   0.0000   0.0000   0.0000   0.0000   0.0000

          k = 0.0812 0.0812-0.1409 ( 31650 PWs)   bands (ev):

   -75.5477 -70.7799 -42.6020 -42.5835 -40.8892 -37.5896 -37.5658 -36.9310
    -5.0877  -5.0168   6.2225   6.7635   7.2360   7.3387   8.1470   8.5483
     9.3407  10.7857  11.0912  11.3125  12.0048  12.0822  15.0802  15.8398
    16.5152  17.6346  18.0562  18.3142  23.9593  24.5742  28.2148  29.4951

     occupation numbers 
     1.0000   1.0000   1.0000   1.0000   1.0000   1.0000   1.0000   1.0000
     1.0000   1.0000   1.0000   1.0000   1.0000   1.0000   1.0000   1.0000
     1.0000   1.0000   1.0000   1.0000   1.0000   1.0000   0.0000   0.0000
     0.0000   0.0000   0.0000   0.0000   0.0000   0.0000   0.0000   0.0000

     the spin up/dw Fermi energies are    13.5477   13.5477 ev

!    total energy              =    -558.83738997 Ry
     Harris-Foulkes estimate   =    -558.83738997 Ry
     estimated scf accuracy    <          8.6E-11 Ry

     The total energy is the sum of the following terms:

     one-electron contribution =    -274.74087034 Ry
     hartree contribution      =     161.31202426 Ry
     xc contribution           =     -67.67935846 Ry
     ewald contribution        =    -377.89819429 Ry
     Hubbard energy            =       0.16900886 Ry
     smearing contrib. (-TS)   =      -0.00000000 Ry

     total magnetization       =     0.00 Bohr mag/cell
     absolute magnetization    =     7.53 Bohr mag/cell

     convergence has been achieved in  15 iterations

     Writing output data file pwscf.save
 
     init_run     :      9.28s CPU      9.53s WALL (       1 calls)
     electrons    :    388.98s CPU    390.25s WALL (       1 calls)

     Called by init_run:
     wfcinit      :      8.53s CPU      8.65s WALL (       1 calls)
     potinit      :      0.36s CPU      0.47s WALL (       1 calls)

     Called by electrons:
     c_bands      :    319.67s CPU    320.47s WALL (      15 calls)
     sum_band     :     66.70s CPU     66.90s WALL (      15 calls)
     v_of_rho     :      2.21s CPU      2.30s WALL (      16 calls)
     v_h          :      0.07s CPU      0.07s WALL (      16 calls)
     v_xc         :      2.14s CPU      2.18s WALL (      16 calls)
     mix_rho      :      0.21s CPU      0.22s WALL (      15 calls)

     Called by c_bands:
     init_us_2    :      0.55s CPU      0.57s WALL (    1792 calls)
     cegterg      :    318.66s CPU    319.40s WALL (     840 calls)

     Called by sum_band:

     Called by *egterg:
     h_psi        :    312.24s CPU    312.96s WALL (    2890 calls)
     g_psi        :      0.22s CPU      0.22s WALL (    1994 calls)
     cdiaghg      :      5.54s CPU      5.62s WALL (    2834 calls)
     cegterg:over :      2.93s CPU      2.94s WALL (    1994 calls)
     cegterg:upda :      1.60s CPU      1.61s WALL (    1994 calls)
     cegterg:last :      0.62s CPU      0.63s WALL (     840 calls)

     Called by h_psi:
     h_psi:vloc   :    308.60s CPU    309.28s WALL (    2890 calls)
     h_psi:vnl    :      2.11s CPU      2.12s WALL (    2890 calls)
     add_vuspsi   :      0.87s CPU      0.87s WALL (    2890 calls)
     vhpsi        :      1.02s CPU      1.03s WALL (    2890 calls)

     General routines
     calbec       :      2.10s CPU      2.12s WALL (    6676 calls)
     fft          :      0.98s CPU      1.01s WALL (     333 calls)
     fftw         :    343.33s CPU    344.12s WALL (  161650 calls)
     davcio       :      0.00s CPU      0.78s WALL (      56 calls)
 
     Parallel routines
     fft_scatter  :     58.56s CPU     58.79s WALL (  161983 calls)

     Hubbard U routines
     new_ns       :      0.31s CPU      0.33s WALL (      15 calls)
     vhpsi        :      1.02s CPU      1.03s WALL (    2890 calls)
 
     PWSCF        :  6m43.13s CPU     6m50.75s WALL

 
   This run was terminated on:   9:48:26  25Aug2017            

=------------------------------------------------------------------------------=
   JOB DONE.
=------------------------------------------------------------------------------=
