
     Program PWSCF v.6.7MaX starts on 19Nov2021 at 14: 6:53 

     This program is part of the open-source Quantum ESPRESSO suite
     for quantum simulation of materials; please cite
         "P. Giannozzi et al., J. Phys.:Condens. Matter 21 395502 (2009);
         "P. Giannozzi et al., J. Phys.:Condens. Matter 29 465901 (2017);
          URL http://www.quantum-espresso.org", 
     in publications or presentations arising from this work. More details at
     http://www.quantum-espresso.org/quote

     Parallel version (MPI), running on    48 processors

     MPI processes distributed on     1 nodes
     R & G space division:  proc/nbgrp/npool/nimage =      48
     Reading input from scf.in

     Current dimensions of program PWSCF are:
     Max number of different atomic species (ntypx) = 10
     Max number of k-points (npk) =  40000
     Max angular momentum in pseudopotentials (lmaxx) =  3
     Message from routine scan_end:
     No INFO block end statement, possibly corrupted file
     Message from routine scan_end:
     No INFO block end statement, possibly corrupted file
     Message from routine scan_end:
     No INFO block end statement, possibly corrupted file

     IMPORTANT: XC functional enforced from input :
     Exchange-correlation= PBE0
                           (   6   4   8   4   0   0   0)
     EXX-fraction              =        0.25
     Any further DFT definition will be discarded
     Please, verify this is what you really want


     Subspace diagonalization in iterative solution of the eigenvalue problem:
     one sub-group per band group will be used
     scalapack distributed-memory algorithm (size of sub-group:  6*  6 procs)

     EXX: q-point mesh:     1    1    1
     EXX: grid of k+q points same as grid of k-points
 
     Parallelization info
     --------------------
     sticks:   dense  smooth     PW     G-vecs:    dense   smooth      PW
     Min         336     336     83                32092    32092    4005
     Max         337     337     84                32097    32097    4012
     Sum       16141   16141   4025              1540499  1540499  192431
 


     bravais-lattice index     =            1
     lattice parameter (alat)  =       7.9576  a.u.
     unit-cell volume          =     503.9013 (a.u.)^3
     number of atoms/cell      =            8
     number of atomic types    =            3
     number of electrons       =        46.00 (up:  23.00, down:  23.00)
     number of Kohn-Sham states=           32
     kinetic-energy cutoff     =     800.0000  Ry
     charge density cutoff     =    3200.0000  Ry
     cutoff for Fock operator  =    3200.0000  Ry
     scf convergence threshold =      1.0E-10
     mixing beta               =       0.2000
     number of iterations used =            8  plain     mixing
     Exchange-correlation= PBE0
                           (   6   4   8   4   0   0   0)
     EXX-fraction              =        0.25

     celldm(1)=   7.957595  celldm(2)=   0.000000  celldm(3)=   0.000000
     celldm(4)=   0.000000  celldm(5)=   0.000000  celldm(6)=   0.000000

     crystal axes: (cart. coord. in units of alat)
               a(1) = (   1.000000   0.000000   0.000000 )  
               a(2) = (   0.000000   1.000000   0.000000 )  
               a(3) = (   0.000000   0.000000   1.000000 )  

     reciprocal axes: (cart. coord. in units 2 pi/alat)
               b(1) = (  1.000000  0.000000  0.000000 )  
               b(2) = (  0.000000  1.000000  0.000000 )  
               b(3) = (  0.000000  0.000000  1.000000 )  


     PseudoPot. # 1 for Fe read from file:
     /ascldap/users/jptowns/ferropericlase_spintransition/pseudos/Fe.ccECP.upf
     MD5 check sum: 375ee7e2ce333dc2f1485c86089d969e
     Pseudo is Norm-conserving, Zval = 16.0
     Generated by new atomic code, or converted to UPF format
     Using radial grid of 1160 points,  2 beta functions with: 
                l(1) =   1
                l(2) =   2

     PseudoPot. # 2 for Mg read from file:
     /ascldap/users/jptowns/ferropericlase_spintransition/pseudos/Mg.ccECP.upf
     MD5 check sum: 94218cb30fa6b3f6810c07405bb1118c
     Pseudo is Norm-conserving, Zval =  2.0
     Generated by new atomic code, or converted to UPF format
     Using radial grid of 1140 points,  2 beta functions with: 
                l(1) =   0
                l(2) =   2

     PseudoPot. # 3 for O  read from file:
     /ascldap/users/jptowns/ferropericlase_spintransition/pseudos/O.ccECP.upf
     MD5 check sum: f8511452b848d8673c004e477b4fc277
     Pseudo is Norm-conserving, Zval =  6.0
     Generated by new atomic code, or converted to UPF format
     Using radial grid of 1130 points,  1 beta functions with: 
                l(1) =   0

     atomic species   valence    mass     pseudopotential
        Fe            16.00    55.84500     Fe( 1.00)
        Mg             2.00    24.30500     Mg( 1.00)
        O              6.00    15.99900     O ( 1.00)

     Starting magnetic structure 
     atomic species   magnetization
        Fe           0.000
        Mg           0.000
        O            0.000

     48 Sym. Ops., with inversion, found


                                    s                        frac. trans.

      isym =  1     identity                                     

 cryst.   s( 1) = (     1          0          0      )
                  (     0          1          0      )
                  (     0          0          1      )

 cart.    s( 1) = (  1.0000000  0.0000000  0.0000000 )
                  (  0.0000000  1.0000000  0.0000000 )
                  (  0.0000000  0.0000000  1.0000000 )


      isym =  2     180 deg rotation - cart. axis [0,0,1]        

 cryst.   s( 2) = (    -1          0          0      )
                  (     0         -1          0      )
                  (     0          0          1      )

 cart.    s( 2) = ( -1.0000000  0.0000000  0.0000000 )
                  (  0.0000000 -1.0000000  0.0000000 )
                  (  0.0000000  0.0000000  1.0000000 )


      isym =  3     180 deg rotation - cart. axis [0,1,0]        

 cryst.   s( 3) = (    -1          0          0      )
                  (     0          1          0      )
                  (     0          0         -1      )

 cart.    s( 3) = ( -1.0000000  0.0000000  0.0000000 )
                  (  0.0000000  1.0000000  0.0000000 )
                  (  0.0000000  0.0000000 -1.0000000 )


      isym =  4     180 deg rotation - cart. axis [1,0,0]        

 cryst.   s( 4) = (     1          0          0      )
                  (     0         -1          0      )
                  (     0          0         -1      )

 cart.    s( 4) = (  1.0000000  0.0000000  0.0000000 )
                  (  0.0000000 -1.0000000  0.0000000 )
                  (  0.0000000  0.0000000 -1.0000000 )


      isym =  5     180 deg rotation - cart. axis [1,1,0]        

 cryst.   s( 5) = (     0          1          0      )
                  (     1          0          0      )
                  (     0          0         -1      )

 cart.    s( 5) = (  0.0000000  1.0000000  0.0000000 )
                  (  1.0000000  0.0000000  0.0000000 )
                  (  0.0000000  0.0000000 -1.0000000 )


      isym =  6     180 deg rotation - cart. axis [1,-1,0]       

 cryst.   s( 6) = (     0         -1          0      )
                  (    -1          0          0      )
                  (     0          0         -1      )

 cart.    s( 6) = (  0.0000000 -1.0000000  0.0000000 )
                  ( -1.0000000  0.0000000  0.0000000 )
                  (  0.0000000  0.0000000 -1.0000000 )


      isym =  7      90 deg rotation - cart. axis [0,0,-1]       

 cryst.   s( 7) = (     0         -1          0      )
                  (     1          0          0      )
                  (     0          0          1      )

 cart.    s( 7) = (  0.0000000  1.0000000  0.0000000 )
                  ( -1.0000000  0.0000000  0.0000000 )
                  (  0.0000000  0.0000000  1.0000000 )


      isym =  8      90 deg rotation - cart. axis [0,0,1]        

 cryst.   s( 8) = (     0          1          0      )
                  (    -1          0          0      )
                  (     0          0          1      )

 cart.    s( 8) = (  0.0000000 -1.0000000  0.0000000 )
                  (  1.0000000  0.0000000  0.0000000 )
                  (  0.0000000  0.0000000  1.0000000 )


      isym =  9     180 deg rotation - cart. axis [1,0,1]        

 cryst.   s( 9) = (     0          0          1      )
                  (     0         -1          0      )
                  (     1          0          0      )

 cart.    s( 9) = (  0.0000000  0.0000000  1.0000000 )
                  (  0.0000000 -1.0000000  0.0000000 )
                  (  1.0000000  0.0000000  0.0000000 )


      isym = 10     180 deg rotation - cart. axis [-1,0,1]       

 cryst.   s(10) = (     0          0         -1      )
                  (     0         -1          0      )
                  (    -1          0          0      )

 cart.    s(10) = (  0.0000000  0.0000000 -1.0000000 )
                  (  0.0000000 -1.0000000  0.0000000 )
                  ( -1.0000000  0.0000000  0.0000000 )


      isym = 11      90 deg rotation - cart. axis [0,1,0]        

 cryst.   s(11) = (     0          0         -1      )
                  (     0          1          0      )
                  (     1          0          0      )

 cart.    s(11) = (  0.0000000  0.0000000  1.0000000 )
                  (  0.0000000  1.0000000  0.0000000 )
                  ( -1.0000000  0.0000000  0.0000000 )


      isym = 12      90 deg rotation - cart. axis [0,-1,0]       

 cryst.   s(12) = (     0          0          1      )
                  (     0          1          0      )
                  (    -1          0          0      )

 cart.    s(12) = (  0.0000000  0.0000000 -1.0000000 )
                  (  0.0000000  1.0000000  0.0000000 )
                  (  1.0000000  0.0000000  0.0000000 )


      isym = 13     180 deg rotation - cart. axis [0,1,1]        

 cryst.   s(13) = (    -1          0          0      )
                  (     0          0          1      )
                  (     0          1          0      )

 cart.    s(13) = ( -1.0000000  0.0000000  0.0000000 )
                  (  0.0000000  0.0000000  1.0000000 )
                  (  0.0000000  1.0000000  0.0000000 )


      isym = 14     180 deg rotation - cart. axis [0,1,-1]       

 cryst.   s(14) = (    -1          0          0      )
                  (     0          0         -1      )
                  (     0         -1          0      )

 cart.    s(14) = ( -1.0000000  0.0000000  0.0000000 )
                  (  0.0000000  0.0000000 -1.0000000 )
                  (  0.0000000 -1.0000000  0.0000000 )


      isym = 15      90 deg rotation - cart. axis [-1,0,0]       

 cryst.   s(15) = (     1          0          0      )
                  (     0          0         -1      )
                  (     0          1          0      )

 cart.    s(15) = (  1.0000000  0.0000000  0.0000000 )
                  (  0.0000000  0.0000000  1.0000000 )
                  (  0.0000000 -1.0000000  0.0000000 )


      isym = 16      90 deg rotation - cart. axis [1,0,0]        

 cryst.   s(16) = (     1          0          0      )
                  (     0          0          1      )
                  (     0         -1          0      )

 cart.    s(16) = (  1.0000000  0.0000000  0.0000000 )
                  (  0.0000000  0.0000000 -1.0000000 )
                  (  0.0000000  1.0000000  0.0000000 )


      isym = 17     120 deg rotation - cart. axis [-1,-1,-1]     

 cryst.   s(17) = (     0          0          1      )
                  (     1          0          0      )
                  (     0          1          0      )

 cart.    s(17) = (  0.0000000  1.0000000  0.0000000 )
                  (  0.0000000  0.0000000  1.0000000 )
                  (  1.0000000  0.0000000  0.0000000 )


      isym = 18     120 deg rotation - cart. axis [-1,1,1]       

 cryst.   s(18) = (     0          0         -1      )
                  (    -1          0          0      )
                  (     0          1          0      )

 cart.    s(18) = (  0.0000000 -1.0000000  0.0000000 )
                  (  0.0000000  0.0000000  1.0000000 )
                  ( -1.0000000  0.0000000  0.0000000 )


      isym = 19     120 deg rotation - cart. axis [1,1,-1]       

 cryst.   s(19) = (     0          0         -1      )
                  (     1          0          0      )
                  (     0         -1          0      )

 cart.    s(19) = (  0.0000000  1.0000000  0.0000000 )
                  (  0.0000000  0.0000000 -1.0000000 )
                  ( -1.0000000  0.0000000  0.0000000 )


      isym = 20     120 deg rotation - cart. axis [1,-1,1]       

 cryst.   s(20) = (     0          0          1      )
                  (    -1          0          0      )
                  (     0         -1          0      )

 cart.    s(20) = (  0.0000000 -1.0000000  0.0000000 )
                  (  0.0000000  0.0000000 -1.0000000 )
                  (  1.0000000  0.0000000  0.0000000 )


      isym = 21     120 deg rotation - cart. axis [1,1,1]        

 cryst.   s(21) = (     0          1          0      )
                  (     0          0          1      )
                  (     1          0          0      )

 cart.    s(21) = (  0.0000000  0.0000000  1.0000000 )
                  (  1.0000000  0.0000000  0.0000000 )
                  (  0.0000000  1.0000000  0.0000000 )


      isym = 22     120 deg rotation - cart. axis [-1,1,-1]      

 cryst.   s(22) = (     0         -1          0      )
                  (     0          0         -1      )
                  (     1          0          0      )

 cart.    s(22) = (  0.0000000  0.0000000  1.0000000 )
                  ( -1.0000000  0.0000000  0.0000000 )
                  (  0.0000000 -1.0000000  0.0000000 )


      isym = 23     120 deg rotation - cart. axis [1,-1,-1]      

 cryst.   s(23) = (     0         -1          0      )
                  (     0          0          1      )
                  (    -1          0          0      )

 cart.    s(23) = (  0.0000000  0.0000000 -1.0000000 )
                  ( -1.0000000  0.0000000  0.0000000 )
                  (  0.0000000  1.0000000  0.0000000 )


      isym = 24     120 deg rotation - cart. axis [-1,-1,1]      

 cryst.   s(24) = (     0          1          0      )
                  (     0          0         -1      )
                  (    -1          0          0      )

 cart.    s(24) = (  0.0000000  0.0000000 -1.0000000 )
                  (  1.0000000  0.0000000  0.0000000 )
                  (  0.0000000 -1.0000000  0.0000000 )


      isym = 25     inversion                                    

 cryst.   s(25) = (    -1          0          0      )
                  (     0         -1          0      )
                  (     0          0         -1      )

 cart.    s(25) = ( -1.0000000  0.0000000  0.0000000 )
                  (  0.0000000 -1.0000000  0.0000000 )
                  (  0.0000000  0.0000000 -1.0000000 )


      isym = 26     inv. 180 deg rotation - cart. axis [0,0,1]   

 cryst.   s(26) = (     1          0          0      )
                  (     0          1          0      )
                  (     0          0         -1      )

 cart.    s(26) = (  1.0000000  0.0000000  0.0000000 )
                  (  0.0000000  1.0000000  0.0000000 )
                  (  0.0000000  0.0000000 -1.0000000 )


      isym = 27     inv. 180 deg rotation - cart. axis [0,1,0]   

 cryst.   s(27) = (     1          0          0      )
                  (     0         -1          0      )
                  (     0          0          1      )

 cart.    s(27) = (  1.0000000  0.0000000  0.0000000 )
                  (  0.0000000 -1.0000000  0.0000000 )
                  (  0.0000000  0.0000000  1.0000000 )


      isym = 28     inv. 180 deg rotation - cart. axis [1,0,0]   

 cryst.   s(28) = (    -1          0          0      )
                  (     0          1          0      )
                  (     0          0          1      )

 cart.    s(28) = ( -1.0000000  0.0000000  0.0000000 )
                  (  0.0000000  1.0000000  0.0000000 )
                  (  0.0000000  0.0000000  1.0000000 )


      isym = 29     inv. 180 deg rotation - cart. axis [1,1,0]   

 cryst.   s(29) = (     0         -1          0      )
                  (    -1          0          0      )
                  (     0          0          1      )

 cart.    s(29) = (  0.0000000 -1.0000000  0.0000000 )
                  ( -1.0000000  0.0000000  0.0000000 )
                  (  0.0000000  0.0000000  1.0000000 )


      isym = 30     inv. 180 deg rotation - cart. axis [1,-1,0]  

 cryst.   s(30) = (     0          1          0      )
                  (     1          0          0      )
                  (     0          0          1      )

 cart.    s(30) = (  0.0000000  1.0000000  0.0000000 )
                  (  1.0000000  0.0000000  0.0000000 )
                  (  0.0000000  0.0000000  1.0000000 )


      isym = 31     inv.  90 deg rotation - cart. axis [0,0,-1]  

 cryst.   s(31) = (     0          1          0      )
                  (    -1          0          0      )
                  (     0          0         -1      )

 cart.    s(31) = (  0.0000000 -1.0000000  0.0000000 )
                  (  1.0000000  0.0000000  0.0000000 )
                  (  0.0000000  0.0000000 -1.0000000 )


      isym = 32     inv.  90 deg rotation - cart. axis [0,0,1]   

 cryst.   s(32) = (     0         -1          0      )
                  (     1          0          0      )
                  (     0          0         -1      )

 cart.    s(32) = (  0.0000000  1.0000000  0.0000000 )
                  ( -1.0000000  0.0000000  0.0000000 )
                  (  0.0000000  0.0000000 -1.0000000 )


      isym = 33     inv. 180 deg rotation - cart. axis [1,0,1]   

 cryst.   s(33) = (     0          0         -1      )
                  (     0          1          0      )
                  (    -1          0          0      )

 cart.    s(33) = (  0.0000000  0.0000000 -1.0000000 )
                  (  0.0000000  1.0000000  0.0000000 )
                  ( -1.0000000  0.0000000  0.0000000 )


      isym = 34     inv. 180 deg rotation - cart. axis [-1,0,1]  

 cryst.   s(34) = (     0          0          1      )
                  (     0          1          0      )
                  (     1          0          0      )

 cart.    s(34) = (  0.0000000  0.0000000  1.0000000 )
                  (  0.0000000  1.0000000  0.0000000 )
                  (  1.0000000  0.0000000  0.0000000 )


      isym = 35     inv.  90 deg rotation - cart. axis [0,1,0]   

 cryst.   s(35) = (     0          0          1      )
                  (     0         -1          0      )
                  (    -1          0          0      )

 cart.    s(35) = (  0.0000000  0.0000000 -1.0000000 )
                  (  0.0000000 -1.0000000  0.0000000 )
                  (  1.0000000  0.0000000  0.0000000 )


      isym = 36     inv.  90 deg rotation - cart. axis [0,-1,0]  

 cryst.   s(36) = (     0          0         -1      )
                  (     0         -1          0      )
                  (     1          0          0      )

 cart.    s(36) = (  0.0000000  0.0000000  1.0000000 )
                  (  0.0000000 -1.0000000  0.0000000 )
                  ( -1.0000000  0.0000000  0.0000000 )


      isym = 37     inv. 180 deg rotation - cart. axis [0,1,1]   

 cryst.   s(37) = (     1          0          0      )
                  (     0          0         -1      )
                  (     0         -1          0      )

 cart.    s(37) = (  1.0000000  0.0000000  0.0000000 )
                  (  0.0000000  0.0000000 -1.0000000 )
                  (  0.0000000 -1.0000000  0.0000000 )


      isym = 38     inv. 180 deg rotation - cart. axis [0,1,-1]  

 cryst.   s(38) = (     1          0          0      )
                  (     0          0          1      )
                  (     0          1          0      )

 cart.    s(38) = (  1.0000000  0.0000000  0.0000000 )
                  (  0.0000000  0.0000000  1.0000000 )
                  (  0.0000000  1.0000000  0.0000000 )


      isym = 39     inv.  90 deg rotation - cart. axis [-1,0,0]  

 cryst.   s(39) = (    -1          0          0      )
                  (     0          0          1      )
                  (     0         -1          0      )

 cart.    s(39) = ( -1.0000000  0.0000000  0.0000000 )
                  (  0.0000000  0.0000000 -1.0000000 )
                  (  0.0000000  1.0000000  0.0000000 )


      isym = 40     inv.  90 deg rotation - cart. axis [1,0,0]   

 cryst.   s(40) = (    -1          0          0      )
                  (     0          0         -1      )
                  (     0          1          0      )

 cart.    s(40) = ( -1.0000000  0.0000000  0.0000000 )
                  (  0.0000000  0.0000000  1.0000000 )
                  (  0.0000000 -1.0000000  0.0000000 )


      isym = 41     inv. 120 deg rotation - cart. axis [-1,-1,-1]

 cryst.   s(41) = (     0          0         -1      )
                  (    -1          0          0      )
                  (     0         -1          0      )

 cart.    s(41) = (  0.0000000 -1.0000000  0.0000000 )
                  (  0.0000000  0.0000000 -1.0000000 )
                  ( -1.0000000  0.0000000  0.0000000 )


      isym = 42     inv. 120 deg rotation - cart. axis [-1,1,1]  

 cryst.   s(42) = (     0          0          1      )
                  (     1          0          0      )
                  (     0         -1          0      )

 cart.    s(42) = (  0.0000000  1.0000000  0.0000000 )
                  (  0.0000000  0.0000000 -1.0000000 )
                  (  1.0000000  0.0000000  0.0000000 )


      isym = 43     inv. 120 deg rotation - cart. axis [1,1,-1]  

 cryst.   s(43) = (     0          0          1      )
                  (    -1          0          0      )
                  (     0          1          0      )

 cart.    s(43) = (  0.0000000 -1.0000000  0.0000000 )
                  (  0.0000000  0.0000000  1.0000000 )
                  (  1.0000000  0.0000000  0.0000000 )


      isym = 44     inv. 120 deg rotation - cart. axis [1,-1,1]  

 cryst.   s(44) = (     0          0         -1      )
                  (     1          0          0      )
                  (     0          1          0      )

 cart.    s(44) = (  0.0000000  1.0000000  0.0000000 )
                  (  0.0000000  0.0000000  1.0000000 )
                  ( -1.0000000  0.0000000  0.0000000 )


      isym = 45     inv. 120 deg rotation - cart. axis [1,1,1]   

 cryst.   s(45) = (     0         -1          0      )
                  (     0          0         -1      )
                  (    -1          0          0      )

 cart.    s(45) = (  0.0000000  0.0000000 -1.0000000 )
                  ( -1.0000000  0.0000000  0.0000000 )
                  (  0.0000000 -1.0000000  0.0000000 )


      isym = 46     inv. 120 deg rotation - cart. axis [-1,1,-1] 

 cryst.   s(46) = (     0          1          0      )
                  (     0          0          1      )
                  (    -1          0          0      )

 cart.    s(46) = (  0.0000000  0.0000000 -1.0000000 )
                  (  1.0000000  0.0000000  0.0000000 )
                  (  0.0000000  1.0000000  0.0000000 )


      isym = 47     inv. 120 deg rotation - cart. axis [1,-1,-1] 

 cryst.   s(47) = (     0          1          0      )
                  (     0          0         -1      )
                  (     1          0          0      )

 cart.    s(47) = (  0.0000000  0.0000000  1.0000000 )
                  (  1.0000000  0.0000000  0.0000000 )
                  (  0.0000000 -1.0000000  0.0000000 )


      isym = 48     inv. 120 deg rotation - cart. axis [-1,-1,1] 

 cryst.   s(48) = (     0         -1          0      )
                  (     0          0          1      )
                  (     1          0          0      )

 cart.    s(48) = (  0.0000000  0.0000000  1.0000000 )
                  ( -1.0000000  0.0000000  0.0000000 )
                  (  0.0000000  1.0000000  0.0000000 )


     point group O_h (m-3m) 
     there are 10 classes
     the character table:

       E     8C3   3C2   6C4   6C2'  i     8S6   3s_h  6S4   6s_d 
A_1g   1.00  1.00  1.00  1.00  1.00  1.00  1.00  1.00  1.00  1.00
A_2g   1.00  1.00  1.00 -1.00 -1.00  1.00  1.00  1.00 -1.00 -1.00
E_g    2.00 -1.00  2.00  0.00  0.00  2.00 -1.00  2.00  0.00  0.00
T_1g   3.00  0.00 -1.00  1.00 -1.00  3.00  0.00 -1.00  1.00 -1.00
T_2g   3.00  0.00 -1.00 -1.00  1.00  3.00  0.00 -1.00 -1.00  1.00
A_1u   1.00  1.00  1.00  1.00  1.00 -1.00 -1.00 -1.00 -1.00 -1.00
A_2u   1.00  1.00  1.00 -1.00 -1.00 -1.00 -1.00 -1.00  1.00  1.00
E_u    2.00 -1.00  2.00  0.00  0.00 -2.00  1.00 -2.00  0.00  0.00
T_1u   3.00  0.00 -1.00  1.00 -1.00 -3.00  0.00  1.00 -1.00  1.00
T_2u   3.00  0.00 -1.00 -1.00  1.00 -3.00  0.00  1.00  1.00 -1.00

     the symmetry operations in each class and the name of the first element:

     E        1
          identity                                               
     8C3     17   19   20   18   24   21   22   23
          120 deg rotation - cart. axis [-1,-1,-1]               
     3C2      2    4    3
          180 deg rotation - cart. axis [0,0,1]                  
     6C4      7    8   15   16   12   11
           90 deg rotation - cart. axis [0,0,-1]                 
     6C2'     5    6   14   13   10    9
          180 deg rotation - cart. axis [1,1,0]                  
     i       25
          inversion                                              
     8S6     41   43   44   42   48   45   46   47
          inv. 120 deg rotation - cart. axis [-1,-1,-1]          
     3s_h    26   28   27
          inv. 180 deg rotation - cart. axis [0,0,1]             
     6S4     31   32   39   40   36   35
          inv.  90 deg rotation - cart. axis [0,0,-1]            
     6s_d    29   30   38   37   34   33
          inv. 180 deg rotation - cart. axis [1,1,0]             

   Cartesian axes

     site n.     atom                  positions (alat units)
         1           Fe  tau(   1) = (   0.0000000   0.0000000   0.0000000  )
         2           Mg  tau(   2) = (   0.0000000   0.5000000   0.5000000  )
         3           Mg  tau(   3) = (   0.5000000   0.0000000   0.5000000  )
         4           Mg  tau(   4) = (   0.5000000   0.5000000   0.0000000  )
         5           O   tau(   5) = (   0.5000000   0.5000000   0.5000000  )
         6           O   tau(   6) = (   0.5000000   0.0000000   0.0000000  )
         7           O   tau(   7) = (   0.0000000   0.5000000   0.0000000  )
         8           O   tau(   8) = (   0.0000000   0.0000000   0.5000000  )

   Crystallographic axes

     site n.     atom                  positions (cryst. coord.)
         1           Fe  tau(   1) = (  0.0000000  0.0000000  0.0000000  )
         2           Mg  tau(   2) = (  0.0000000  0.5000000  0.5000000  )
         3           Mg  tau(   3) = (  0.5000000  0.0000000  0.5000000  )
         4           Mg  tau(   4) = (  0.5000000  0.5000000  0.0000000  )
         5           O   tau(   5) = (  0.5000000  0.5000000  0.5000000  )
         6           O   tau(   6) = (  0.5000000  0.0000000  0.0000000  )
         7           O   tau(   7) = (  0.0000000  0.5000000  0.0000000  )
         8           O   tau(   8) = (  0.0000000  0.0000000  0.5000000  )

     number of k points=     1  Fermi-Dirac smearing, width (Ry)=  0.0019
                       cart. coord. in units 2pi/alat
        k(    1) = (   0.0000000   0.0000000   0.0000000), wk =   1.0000000

                       cryst. coord.
        k(    1) = (   0.0000000   0.0000000   0.0000000), wk =   1.0000000

     Dense  grid:  1540499 G-vectors     FFT dimensions: ( 144, 144, 144)

     Dynamical RAM for                 wfc:       1.96 MB

     Dynamical RAM for     wfc (w. buffer):       5.88 MB

     Dynamical RAM for                 EXX:     162.57 MB

     Dynamical RAM for           str. fact:       1.47 MB

     Dynamical RAM for           local pot:       0.00 MB

     Dynamical RAM for          nlocal pot:       1.84 MB

     Dynamical RAM for                qrad:       1.94 MB

     Dynamical RAM for          rho,v,vnew:       5.79 MB

     Dynamical RAM for               rhoin:       1.93 MB

     Dynamical RAM for            rho*nmix:      15.67 MB

     Dynamical RAM for           G-vectors:       2.08 MB

     Dynamical RAM for          h,s,v(r/c):       0.00 MB

     Dynamical RAM for          <psi|beta>:       0.01 MB

     Dynamical RAM for                 psi:       3.92 MB

     Dynamical RAM for                hpsi:       3.92 MB

     Dynamical RAM for      wfcinit/wfcrot:       6.43 MB

     Estimated static dynamical RAM per process >     203.97 MB

     Estimated max dynamical RAM per process >     211.82 MB

     Estimated total dynamical RAM >       9.93 GB
     Generating pointlists ...
     new r_m :   0.2063 (alat units)  1.6413 (a.u.) for type    1
     new r_m :   0.2063 (alat units)  1.6413 (a.u.) for type    2
     new r_m :   0.2063 (alat units)  1.6413 (a.u.) for type    3

     The initial density is read from file :
     pwscf_output/pwscf.save/charge-density

     Starting wfcs are   52 randomized atomic wfcs

     total cpu time spent up to now is        3.9 secs

     Self-consistent Calculation

     iteration #  1     ecut=   800.00 Ry     beta= 0.20
     Davidson diagonalization with overlap
     c_bands:  1 eigenvalues not converged
     ethr =  1.00E-05,  avg # of iterations = 19.0

     total cpu time spent up to now is        6.2 secs

     total energy              =    -381.45140631 Ry
     estimated scf accuracy    <       0.50819933 Ry

     total magnetization       =     0.00 Bohr mag/cell
     absolute magnetization    =     0.04 Bohr mag/cell

     iteration #  2     ecut=   800.00 Ry     beta= 0.20
     Davidson diagonalization with overlap
     ethr =  1.10E-03,  avg # of iterations =  2.0

     total cpu time spent up to now is        7.0 secs

     total energy              =    -381.49493400 Ry
     estimated scf accuracy    <       0.02782374 Ry

     total magnetization       =    -0.00 Bohr mag/cell
     absolute magnetization    =     0.35 Bohr mag/cell

     iteration #  3     ecut=   800.00 Ry     beta= 0.20
     Davidson diagonalization with overlap
     ethr =  6.05E-05,  avg # of iterations =  2.0

     total cpu time spent up to now is        7.7 secs

     total energy              =    -381.49321860 Ry
     estimated scf accuracy    <       2.04577554 Ry

     total magnetization       =     0.00 Bohr mag/cell
     absolute magnetization    =     3.56 Bohr mag/cell

     iteration #  4     ecut=   800.00 Ry     beta= 0.20
     Davidson diagonalization with overlap
     ethr =  6.05E-05,  avg # of iterations =  1.0

     total cpu time spent up to now is        8.3 secs

     total energy              =    -381.48836248 Ry
     estimated scf accuracy    <       0.16057294 Ry

     total magnetization       =     0.00 Bohr mag/cell
     absolute magnetization    =     1.31 Bohr mag/cell

     iteration #  5     ecut=   800.00 Ry     beta= 0.20
     Davidson diagonalization with overlap
     ethr =  6.05E-05,  avg # of iterations =  2.0

     total cpu time spent up to now is        9.0 secs

     total energy              =    -381.49146902 Ry
     estimated scf accuracy    <       0.06472374 Ry

     total magnetization       =     0.00 Bohr mag/cell
     absolute magnetization    =     0.05 Bohr mag/cell

     iteration #  6     ecut=   800.00 Ry     beta= 0.20
     Davidson diagonalization with overlap
     ethr =  6.05E-05,  avg # of iterations =  1.0

     total cpu time spent up to now is        9.6 secs

     total energy              =    -381.50972406 Ry
     estimated scf accuracy    <       1.99152588 Ry

     total magnetization       =    -0.00 Bohr mag/cell
     absolute magnetization    =     3.68 Bohr mag/cell

     iteration #  7     ecut=   800.00 Ry     beta= 0.20
     Davidson diagonalization with overlap
     ethr =  6.05E-05,  avg # of iterations =  1.0

     total cpu time spent up to now is       10.3 secs

     total energy              =    -381.50395003 Ry
     estimated scf accuracy    <       1.88925969 Ry

     total magnetization       =     0.00 Bohr mag/cell
     absolute magnetization    =     3.60 Bohr mag/cell

     iteration #  8     ecut=   800.00 Ry     beta= 0.20
     Davidson diagonalization with overlap
     ethr =  6.05E-05,  avg # of iterations =  1.0

     total cpu time spent up to now is       10.9 secs

     total energy              =    -381.49528716 Ry
     estimated scf accuracy    <       1.31512899 Ry

     total magnetization       =     0.00 Bohr mag/cell
     absolute magnetization    =     3.12 Bohr mag/cell

     iteration #  9     ecut=   800.00 Ry     beta= 0.20
     Davidson diagonalization with overlap
     ethr =  6.05E-05,  avg # of iterations =  1.0

     total cpu time spent up to now is       11.6 secs

     total energy              =    -381.49680525 Ry
     estimated scf accuracy    <       0.13087553 Ry

     total magnetization       =     0.00 Bohr mag/cell
     absolute magnetization    =     1.40 Bohr mag/cell

     iteration # 10     ecut=   800.00 Ry     beta= 0.20
     Davidson diagonalization with overlap
     ethr =  6.05E-05,  avg # of iterations =  1.0

     total cpu time spent up to now is       12.3 secs

     total energy              =    -381.49763390 Ry
     estimated scf accuracy    <       0.00142366 Ry

     total magnetization       =     0.00 Bohr mag/cell
     absolute magnetization    =     0.70 Bohr mag/cell

     iteration # 11     ecut=   800.00 Ry     beta= 0.20
     Davidson diagonalization with overlap
     ethr =  3.09E-06,  avg # of iterations =  1.0

     total cpu time spent up to now is       12.9 secs

     total energy              =    -381.49771751 Ry
     estimated scf accuracy    <       0.01030787 Ry

     total magnetization       =    -0.00 Bohr mag/cell
     absolute magnetization    =     0.83 Bohr mag/cell

     iteration # 12     ecut=   800.00 Ry     beta= 0.20
     Davidson diagonalization with overlap
     ethr =  3.09E-06,  avg # of iterations =  1.0

     total cpu time spent up to now is       13.6 secs

     total energy              =    -381.49743750 Ry
     estimated scf accuracy    <       0.02057711 Ry

     total magnetization       =     0.00 Bohr mag/cell
     absolute magnetization    =     0.92 Bohr mag/cell

     iteration # 13     ecut=   800.00 Ry     beta= 0.20
     Davidson diagonalization with overlap
     ethr =  3.09E-06,  avg # of iterations =  1.0

     total cpu time spent up to now is       14.3 secs

     total energy              =    -381.49759258 Ry
     estimated scf accuracy    <       0.00023110 Ry

     total magnetization       =    -0.00 Bohr mag/cell
     absolute magnetization    =     0.64 Bohr mag/cell

     iteration # 14     ecut=   800.00 Ry     beta= 0.20
     Davidson diagonalization with overlap
     ethr =  5.02E-07,  avg # of iterations =  1.0

     total cpu time spent up to now is       14.9 secs

     total energy              =    -381.49757966 Ry
     estimated scf accuracy    <       0.00283307 Ry

     total magnetization       =    -0.00 Bohr mag/cell
     absolute magnetization    =     0.73 Bohr mag/cell

     iteration # 15     ecut=   800.00 Ry     beta= 0.20
     Davidson diagonalization with overlap
     ethr =  5.02E-07,  avg # of iterations =  1.0

     total cpu time spent up to now is       15.6 secs

     total energy              =    -381.49757982 Ry
     estimated scf accuracy    <       0.00073458 Ry

     total magnetization       =    -0.00 Bohr mag/cell
     absolute magnetization    =     0.67 Bohr mag/cell

     iteration # 16     ecut=   800.00 Ry     beta= 0.20
     Davidson diagonalization with overlap
     ethr =  5.02E-07,  avg # of iterations =  1.0

     total cpu time spent up to now is       16.2 secs

     total energy              =    -381.49758063 Ry
     estimated scf accuracy    <       0.00024519 Ry

     total magnetization       =    -0.00 Bohr mag/cell
     absolute magnetization    =     0.64 Bohr mag/cell

     iteration # 17     ecut=   800.00 Ry     beta= 0.20
     Davidson diagonalization with overlap
     ethr =  5.02E-07,  avg # of iterations =  1.0

     total cpu time spent up to now is       16.9 secs

     total energy              =    -381.49757783 Ry
     estimated scf accuracy    <       0.00019607 Ry

     total magnetization       =     0.00 Bohr mag/cell
     absolute magnetization    =     0.64 Bohr mag/cell

     iteration # 18     ecut=   800.00 Ry     beta= 0.20
     Davidson diagonalization with overlap
     ethr =  4.26E-07,  avg # of iterations =  1.0

     total cpu time spent up to now is       17.5 secs

     total energy              =    -381.49757873 Ry
     estimated scf accuracy    <       0.00001489 Ry

     total magnetization       =     0.00 Bohr mag/cell
     absolute magnetization    =     0.62 Bohr mag/cell

     iteration # 19     ecut=   800.00 Ry     beta= 0.20
     Davidson diagonalization with overlap
     ethr =  3.24E-08,  avg # of iterations =  1.0

     total cpu time spent up to now is       18.2 secs

     total energy              =    -381.49757885 Ry
     estimated scf accuracy    <       0.00000031 Ry

     total magnetization       =     0.00 Bohr mag/cell
     absolute magnetization    =     0.61 Bohr mag/cell

     iteration # 20     ecut=   800.00 Ry     beta= 0.20
     Davidson diagonalization with overlap
     ethr =  6.73E-10,  avg # of iterations =  1.5

     total cpu time spent up to now is       18.8 secs

     total energy              =    -381.49757886 Ry
     estimated scf accuracy    <       0.00000001 Ry

     total magnetization       =     0.00 Bohr mag/cell
     absolute magnetization    =     0.61 Bohr mag/cell

     iteration # 21     ecut=   800.00 Ry     beta= 0.20
     Davidson diagonalization with overlap
     ethr =  2.57E-11,  avg # of iterations =  4.0

     total cpu time spent up to now is       19.7 secs

     total energy              =    -381.49757886 Ry
     estimated scf accuracy    <       0.00000004 Ry

     total magnetization       =     0.00 Bohr mag/cell
     absolute magnetization    =     0.61 Bohr mag/cell

     iteration # 22     ecut=   800.00 Ry     beta= 0.20
     Davidson diagonalization with overlap
     ethr =  2.57E-11,  avg # of iterations =  2.0

     total cpu time spent up to now is       20.4 secs

     total energy              =    -381.49757886 Ry
     estimated scf accuracy    <       0.00000013 Ry

     total magnetization       =     0.00 Bohr mag/cell
     absolute magnetization    =     0.61 Bohr mag/cell

     iteration # 23     ecut=   800.00 Ry     beta= 0.20
     Davidson diagonalization with overlap
     ethr =  2.57E-11,  avg # of iterations =  1.0

     total cpu time spent up to now is       21.1 secs

     total energy              =    -381.49757886 Ry
     estimated scf accuracy    <       0.00000003 Ry

     total magnetization       =     0.00 Bohr mag/cell
     absolute magnetization    =     0.61 Bohr mag/cell

     iteration # 24     ecut=   800.00 Ry     beta= 0.20
     Davidson diagonalization with overlap
     ethr =  2.57E-11,  avg # of iterations =  1.0

     total cpu time spent up to now is       21.7 secs

     total energy              =    -381.49757886 Ry
     estimated scf accuracy    <          3.2E-10 Ry

     total magnetization       =     0.00 Bohr mag/cell
     absolute magnetization    =     0.61 Bohr mag/cell

     iteration # 25     ecut=   800.00 Ry     beta= 0.20
     Davidson diagonalization with overlap
     ethr =  6.93E-13,  avg # of iterations =  2.0

     total cpu time spent up to now is       22.4 secs

     total energy              =    -381.49757886 Ry
     estimated scf accuracy    <          4.6E-10 Ry

     total magnetization       =     0.00 Bohr mag/cell
     absolute magnetization    =     0.61 Bohr mag/cell

     iteration # 26     ecut=   800.00 Ry     beta= 0.20
     Davidson diagonalization with overlap
     ethr =  6.93E-13,  avg # of iterations =  2.0
 
     Magnetic moment per site:
     atom:    1    charge:   13.3630    magn:    0.2807    constr:    0.0000
     atom:    2    charge:    0.2227    magn:    0.0001    constr:    0.0000
     atom:    3    charge:    0.2227    magn:    0.0001    constr:    0.0000
     atom:    4    charge:    0.2227    magn:    0.0001    constr:    0.0000
     atom:    5    charge:    5.9050    magn:   -0.0728    constr:    0.0000
     atom:    6    charge:    5.9011    magn:   -0.0698    constr:    0.0000
     atom:    7    charge:    5.9011    magn:   -0.0698    constr:    0.0000
     atom:    8    charge:    5.9011    magn:   -0.0698    constr:    0.0000

     total cpu time spent up to now is       23.1 secs

     End of self-consistent calculation

 ------ SPIN UP ------------


          k = 0.0000 0.0000 0.0000 (192431 PWs)   bands (ev):

   -78.6383 -44.1967 -44.1967 -44.1967  -9.5969  -8.0809  -8.0809  -8.0093
     3.5891   3.5891   3.5891   6.4502   6.4502   6.4502   6.4847   6.4847
     6.4847   7.0381   7.0381   7.0381   7.8907   7.8907   7.8907   7.9923
     7.9923  12.3273  17.1514  17.8955  17.8955  17.9370  17.9370  17.9370

     occupation numbers 
     1.0000   1.0000   1.0000   1.0000   1.0000   1.0000   1.0000   1.0000
     1.0000   1.0000   1.0000   1.0000   1.0000   1.0000   1.0000   1.0000
     1.0000   1.0000   1.0000   1.0000   0.9000   0.9000   0.9000   0.1501
     0.1501   0.0000   0.0000   0.0000   0.0000   0.0000   0.0000   0.0000

 ------ SPIN DOWN ----------


          k = 0.0000 0.0000 0.0000 (192431 PWs)   bands (ev):

   -78.1910 -43.7558 -43.7558 -43.7558  -9.6910  -8.1854  -8.1854  -8.1247
     3.5238   3.5238   3.5238   6.3531   6.3531   6.3531   6.3829   6.3829
     6.3829   7.2011   7.2011   7.2011   7.7718   7.7718   7.7718   8.7434
     8.7434  12.3090  17.2278  17.8862  17.8862  17.9527  17.9527  17.9527

     occupation numbers 
     1.0000   1.0000   1.0000   1.0000   1.0000   1.0000   1.0000   1.0000
     1.0000   1.0000   1.0000   1.0000   1.0000   1.0000   1.0000   1.0000
     1.0000   1.0000   1.0000   1.0000   1.0000   1.0000   1.0000   0.0000
     0.0000   0.0000   0.0000   0.0000   0.0000   0.0000   0.0000   0.0000

     the spin up/dw Fermi energies are     7.9475    8.2628 ev

!    total energy              =    -381.49757886 Ry
     estimated scf accuracy    <          7.3E-12 Ry
     smearing contrib. (-TS)   =      -0.00346030 Ry
     internal energy E=F+TS    =    -381.49411857 Ry

     total magnetization       =     0.00 Bohr mag/cell
     absolute magnetization    =     0.61 Bohr mag/cell

     convergence has been achieved in  26 iterations

     Using ACE for calculation of exact exchange

     EXX grid:  1540499 G-vectors     FFT dimensions: ( 144, 144, 144)

     EXX: now go back to refine exchange calculation

     total cpu time spent up to now is       44.3 secs

     Self-consistent Calculation

     iteration #  1     ecut=   800.00 Ry     beta= 0.20
     Davidson diagonalization with overlap
     ethr =  6.93E-13,  avg # of iterations = 14.5

     total cpu time spent up to now is       47.1 secs

     total energy              =    -381.38597425 Ry
     estimated scf accuracy    <       0.05135477 Ry

     total magnetization       =     0.00 Bohr mag/cell
     absolute magnetization    =     0.12 Bohr mag/cell

     iteration #  2     ecut=   800.00 Ry     beta= 0.20
     Davidson diagonalization with overlap
     ethr =  1.12E-04,  avg # of iterations =  2.0

     total cpu time spent up to now is       47.8 secs

     total energy              =    -381.38437928 Ry
     estimated scf accuracy    <       0.01510182 Ry

     total magnetization       =    -0.00 Bohr mag/cell
     absolute magnetization    =     0.11 Bohr mag/cell

     iteration #  3     ecut=   800.00 Ry     beta= 0.20
     Davidson diagonalization with overlap
     ethr =  3.28E-05,  avg # of iterations =  2.0

     total cpu time spent up to now is       48.5 secs

     total energy              =    -381.38635228 Ry
     estimated scf accuracy    <       0.00334845 Ry

     total magnetization       =    -0.00 Bohr mag/cell
     absolute magnetization    =     0.10 Bohr mag/cell

     iteration #  4     ecut=   800.00 Ry     beta= 0.20
     Davidson diagonalization with overlap
     ethr =  7.28E-06,  avg # of iterations =  1.0

     total cpu time spent up to now is       49.2 secs

     total energy              =    -381.38655826 Ry
     estimated scf accuracy    <       0.00014890 Ry

     total magnetization       =     0.00 Bohr mag/cell
     absolute magnetization    =     0.09 Bohr mag/cell

     iteration #  5     ecut=   800.00 Ry     beta= 0.20
     Davidson diagonalization with overlap
     ethr =  3.24E-07,  avg # of iterations =  2.0

     total cpu time spent up to now is       50.0 secs

     total energy              =    -381.38656449 Ry
     estimated scf accuracy    <       0.00004111 Ry

     total magnetization       =    -0.00 Bohr mag/cell
     absolute magnetization    =     0.08 Bohr mag/cell

     iteration #  6     ecut=   800.00 Ry     beta= 0.20
     Davidson diagonalization with overlap
     ethr =  8.94E-08,  avg # of iterations =  2.0

     total cpu time spent up to now is       50.7 secs

     total energy              =    -381.38657148 Ry
     estimated scf accuracy    <       0.00001660 Ry

     total magnetization       =    -0.00 Bohr mag/cell
     absolute magnetization    =     0.08 Bohr mag/cell

     iteration #  7     ecut=   800.00 Ry     beta= 0.20
     Davidson diagonalization with overlap
     ethr =  3.61E-08,  avg # of iterations =  2.0

     total cpu time spent up to now is       51.5 secs

     total energy              =    -381.38657150 Ry
     estimated scf accuracy    <       0.00000275 Ry

     total magnetization       =     0.00 Bohr mag/cell
     absolute magnetization    =     0.08 Bohr mag/cell

     iteration #  8     ecut=   800.00 Ry     beta= 0.20
     Davidson diagonalization with overlap
     ethr =  5.97E-09,  avg # of iterations =  2.0

     total cpu time spent up to now is       52.3 secs

     total energy              =    -381.38657230 Ry
     estimated scf accuracy    <       0.00000025 Ry

     total magnetization       =     0.00 Bohr mag/cell
     absolute magnetization    =     0.08 Bohr mag/cell

     iteration #  9     ecut=   800.00 Ry     beta= 0.20
     Davidson diagonalization with overlap
     ethr =  5.43E-10,  avg # of iterations =  2.0

     total cpu time spent up to now is       53.1 secs

     total energy              =    -381.38657237 Ry
     estimated scf accuracy    <       0.00000017 Ry

     total magnetization       =    -0.00 Bohr mag/cell
     absolute magnetization    =     0.08 Bohr mag/cell

     iteration # 10     ecut=   800.00 Ry     beta= 0.20
     Davidson diagonalization with overlap
     ethr =  3.80E-10,  avg # of iterations =  2.0

     total cpu time spent up to now is       53.9 secs

     total energy              =    -381.38657240 Ry
     estimated scf accuracy    <       0.00000002 Ry

     total magnetization       =     0.00 Bohr mag/cell
     absolute magnetization    =     0.08 Bohr mag/cell

     iteration # 11     ecut=   800.00 Ry     beta= 0.20
     Davidson diagonalization with overlap
     ethr =  4.95E-11,  avg # of iterations =  3.0

     total cpu time spent up to now is       54.7 secs

     total energy              =    -381.38657240 Ry
     estimated scf accuracy    <       0.00000003 Ry

     total magnetization       =    -0.00 Bohr mag/cell
     absolute magnetization    =     0.08 Bohr mag/cell

     iteration # 12     ecut=   800.00 Ry     beta= 0.20
     Davidson diagonalization with overlap
     ethr =  4.95E-11,  avg # of iterations =  2.0

     total cpu time spent up to now is       55.5 secs

     total energy              =    -381.38657241 Ry
     estimated scf accuracy    <          1.0E-09 Ry

     total magnetization       =    -0.00 Bohr mag/cell
     absolute magnetization    =     0.08 Bohr mag/cell

     iteration # 13     ecut=   800.00 Ry     beta= 0.20
     Davidson diagonalization with overlap
     ethr =  2.26E-12,  avg # of iterations =  4.0

     total cpu time spent up to now is       56.4 secs

     total energy              =    -381.38657241 Ry
     estimated scf accuracy    <          7.6E-10 Ry

     total magnetization       =     0.00 Bohr mag/cell
     absolute magnetization    =     0.08 Bohr mag/cell

     iteration # 14     ecut=   800.00 Ry     beta= 0.20
     Davidson diagonalization with overlap
     ethr =  1.65E-12,  avg # of iterations =  2.0

     total cpu time spent up to now is       57.2 secs

     total energy              =    -381.38657241 Ry
     estimated scf accuracy    <          2.2E-10 Ry

     total magnetization       =    -0.00 Bohr mag/cell
     absolute magnetization    =     0.08 Bohr mag/cell

     iteration # 15     ecut=   800.00 Ry     beta= 0.20
     Davidson diagonalization with overlap
     ethr =  4.87E-13,  avg # of iterations =  2.0
 
     Magnetic moment per site:
     atom:    1    charge:   13.2557    magn:    0.0078    constr:    0.0000
     atom:    2    charge:    0.2214    magn:    0.0012    constr:    0.0000
     atom:    3    charge:    0.2214    magn:    0.0012    constr:    0.0000
     atom:    4    charge:    0.2214    magn:    0.0012    constr:    0.0000
     atom:    5    charge:    5.9495    magn:   -0.0086    constr:    0.0000
     atom:    6    charge:    5.9490    magn:   -0.0093    constr:    0.0000
     atom:    7    charge:    5.9490    magn:   -0.0093    constr:    0.0000
     atom:    8    charge:    5.9490    magn:   -0.0093    constr:    0.0000

     total cpu time spent up to now is       57.9 secs

     End of self-consistent calculation

 ------ SPIN UP ------------


          k = 0.0000 0.0000 0.0000 (192431 PWs)   bands (ev):

   -86.4314 -50.4146 -50.4146 -50.4146 -12.7003 -11.1592 -11.1592 -10.7929
     1.7076   1.7076   1.7076   3.3526   3.3526   3.3526   4.7620   4.7620
     4.7620   4.7930   4.7930   4.7930   6.4982   6.4982   6.4982   8.7254
     8.7254  13.3437  18.1014  18.8150  18.8150  18.8150  19.0332  19.0332

     occupation numbers 
     1.0000   1.0000   1.0000   1.0000   1.0000   1.0000   1.0000   1.0000
     1.0000   1.0000   1.0000   1.0000   1.0000   1.0000   1.0000   1.0000
     1.0000   1.0000   1.0000   1.0000   1.0000   1.0000   1.0000   0.0000
     0.0000   0.0000   0.0000   0.0000   0.0000   0.0000   0.0000   0.0000

 ------ SPIN DOWN ----------


          k = 0.0000 0.0000 0.0000 (192431 PWs)   bands (ev):

   -86.2158 -50.1585 -50.1585 -50.1585 -12.7574 -11.2642 -11.2642 -10.9095
     1.6278   1.6278   1.6278   3.4344   3.4344   3.4344   4.6378   4.6378
     4.6378   4.6674   4.6674   4.6674   6.2244   6.2244   6.2244   9.7209
     9.7209  13.3421  18.1233  18.8304  18.8304  18.8304  19.0371  19.0371

     occupation numbers 
     1.0000   1.0000   1.0000   1.0000   1.0000   1.0000   1.0000   1.0000
     1.0000   1.0000   1.0000   1.0000   1.0000   1.0000   1.0000   1.0000
     1.0000   1.0000   1.0000   1.0000   1.0000   1.0000   1.0000   0.0000
     0.0000   0.0000   0.0000   0.0000   0.0000   0.0000   0.0000   0.0000

     the spin up/dw Fermi energies are     7.5419    7.5419 ev

!    total energy              =    -381.38657241 Ry
     estimated scf accuracy    <          4.7E-12 Ry
     smearing contrib. (-TS)   =       0.00000000 Ry
     internal energy E=F+TS    =    -381.38657241 Ry

     total magnetization       =    -0.00 Bohr mag/cell
     absolute magnetization    =     0.08 Bohr mag/cell

     convergence has been achieved in  15 iterations

     Using ACE for calculation of exact exchange

     total energy              =    -381.40390307 Ry
     Harris-Foulkes estimate   =    -381.40390307 Ry
     est. exchange err (dexx)  =       0.01733067 Ry
     - averaged Fock potential =      27.08191981 Ry
     + Fock energy (ACE)       =     -13.61319424 Ry

     EXX: now go back to refine exchange calculation

     total cpu time spent up to now is       78.7 secs

     Self-consistent Calculation

     iteration #  1     ecut=   800.00 Ry     beta= 0.20
     Davidson diagonalization with overlap
     ethr =  4.87E-13,  avg # of iterations = 11.5

     total cpu time spent up to now is       80.9 secs

     total energy              =    -381.40450627 Ry
     estimated scf accuracy    <       0.00097400 Ry

     total magnetization       =    -0.00 Bohr mag/cell
     absolute magnetization    =     0.03 Bohr mag/cell

     iteration #  2     ecut=   800.00 Ry     beta= 0.20
     Davidson diagonalization with overlap
     ethr =  2.12E-06,  avg # of iterations =  2.0

     total cpu time spent up to now is       81.6 secs

     total energy              =    -381.40446283 Ry
     estimated scf accuracy    <       0.00021713 Ry

     total magnetization       =     0.00 Bohr mag/cell
     absolute magnetization    =     0.03 Bohr mag/cell

     iteration #  3     ecut=   800.00 Ry     beta= 0.20
     Davidson diagonalization with overlap
     ethr =  4.72E-07,  avg # of iterations =  2.0

     total cpu time spent up to now is       82.3 secs

     total energy              =    -381.40450997 Ry
     estimated scf accuracy    <       0.00001070 Ry

     total magnetization       =     0.00 Bohr mag/cell
     absolute magnetization    =     0.03 Bohr mag/cell

     iteration #  4     ecut=   800.00 Ry     beta= 0.20
     Davidson diagonalization with overlap
     ethr =  2.33E-08,  avg # of iterations =  2.0

     total cpu time spent up to now is       83.1 secs

     total energy              =    -381.40451099 Ry
     estimated scf accuracy    <       0.00000179 Ry

     total magnetization       =     0.00 Bohr mag/cell
     absolute magnetization    =     0.03 Bohr mag/cell

     iteration #  5     ecut=   800.00 Ry     beta= 0.20
     Davidson diagonalization with overlap
     ethr =  3.88E-09,  avg # of iterations =  2.0

     total cpu time spent up to now is       83.8 secs

     total energy              =    -381.40451113 Ry
     estimated scf accuracy    <       0.00000038 Ry

     total magnetization       =     0.00 Bohr mag/cell
     absolute magnetization    =     0.03 Bohr mag/cell

     iteration #  6     ecut=   800.00 Ry     beta= 0.20
     Davidson diagonalization with overlap
     ethr =  8.28E-10,  avg # of iterations =  2.0

     total cpu time spent up to now is       84.6 secs

     total energy              =    -381.40451123 Ry
     estimated scf accuracy    <       0.00000011 Ry

     total magnetization       =     0.00 Bohr mag/cell
     absolute magnetization    =     0.03 Bohr mag/cell

     iteration #  7     ecut=   800.00 Ry     beta= 0.20
     Davidson diagonalization with overlap
     ethr =  2.38E-10,  avg # of iterations =  2.0

     total cpu time spent up to now is       85.4 secs

     total energy              =    -381.40451126 Ry
     estimated scf accuracy    <       0.00000003 Ry

     total magnetization       =     0.00 Bohr mag/cell
     absolute magnetization    =     0.03 Bohr mag/cell

     iteration #  8     ecut=   800.00 Ry     beta= 0.20
     Davidson diagonalization with overlap
     ethr =  5.54E-11,  avg # of iterations =  2.0

     total cpu time spent up to now is       86.2 secs

     total energy              =    -381.40451127 Ry
     estimated scf accuracy    <          1.4E-09 Ry

     total magnetization       =     0.00 Bohr mag/cell
     absolute magnetization    =     0.03 Bohr mag/cell

     iteration #  9     ecut=   800.00 Ry     beta= 0.20
     Davidson diagonalization with overlap
     ethr =  3.10E-12,  avg # of iterations =  4.0

     total cpu time spent up to now is       87.1 secs

     total energy              =    -381.40451127 Ry
     estimated scf accuracy    <          8.6E-10 Ry

     total magnetization       =     0.00 Bohr mag/cell
     absolute magnetization    =     0.03 Bohr mag/cell

     iteration # 10     ecut=   800.00 Ry     beta= 0.20
     Davidson diagonalization with overlap
     ethr =  1.87E-12,  avg # of iterations =  2.0

     total cpu time spent up to now is       87.9 secs

     total energy              =    -381.40451127 Ry
     estimated scf accuracy    <          1.7E-10 Ry

     total magnetization       =     0.00 Bohr mag/cell
     absolute magnetization    =     0.03 Bohr mag/cell

     iteration # 11     ecut=   800.00 Ry     beta= 0.20
     Davidson diagonalization with overlap
     ethr =  3.80E-13,  avg # of iterations =  2.0
 
     Magnetic moment per site:
     atom:    1    charge:   13.2684    magn:    0.0015    constr:    0.0000
     atom:    2    charge:    0.2209    magn:    0.0004    constr:    0.0000
     atom:    3    charge:    0.2209    magn:    0.0004    constr:    0.0000
     atom:    4    charge:    0.2209    magn:    0.0004    constr:    0.0000
     atom:    5    charge:    5.9502    magn:   -0.0027    constr:    0.0000
     atom:    6    charge:    5.9516    magn:   -0.0029    constr:    0.0000
     atom:    7    charge:    5.9516    magn:   -0.0029    constr:    0.0000
     atom:    8    charge:    5.9516    magn:   -0.0029    constr:    0.0000

     total cpu time spent up to now is       88.7 secs

     End of self-consistent calculation

 ------ SPIN UP ------------


          k = 0.0000 0.0000 0.0000 (192431 PWs)   bands (ev):

   -86.0667 -50.0265 -50.0265 -50.0265 -12.7292 -11.2264 -11.2264 -10.8995
     1.6566   1.6566   1.6566   3.4764   3.4764   3.4764   4.6695   4.6695
     4.6695   4.6962   4.6962   4.6962   6.2572   6.2572   6.2572   9.8924
     9.8924  13.3788  18.1548  18.8316  18.8316  18.8316  19.0274  19.0274

     occupation numbers 
     1.0000   1.0000   1.0000   1.0000   1.0000   1.0000   1.0000   1.0000
     1.0000   1.0000   1.0000   1.0000   1.0000   1.0000   1.0000   1.0000
     1.0000   1.0000   1.0000   1.0000   1.0000   1.0000   1.0000   0.0000
     0.0000   0.0000   0.0000   0.0000   0.0000   0.0000   0.0000   0.0000

 ------ SPIN DOWN ----------


          k = 0.0000 0.0000 0.0000 (192431 PWs)   bands (ev):

   -86.0569 -50.0163 -50.0163 -50.0163 -12.7420 -11.2434 -11.2434 -10.9149
     1.6513   1.6513   1.6513   3.4855   3.4855   3.4855   4.6563   4.6563
     4.6563   4.6825   4.6825   4.6825   6.2386   6.2386   6.2386   9.9035
     9.9035  13.3777  18.1608  18.8408  18.8408  18.8408  19.0340  19.0340

     occupation numbers 
     1.0000   1.0000   1.0000   1.0000   1.0000   1.0000   1.0000   1.0000
     1.0000   1.0000   1.0000   1.0000   1.0000   1.0000   1.0000   1.0000
     1.0000   1.0000   1.0000   1.0000   1.0000   1.0000   1.0000   0.0000
     0.0000   0.0000   0.0000   0.0000   0.0000   0.0000   0.0000   0.0000

     the spin up/dw Fermi energies are     9.2228    9.2228 ev

!    total energy              =    -381.40451127 Ry
     estimated scf accuracy    <          6.4E-11 Ry
     smearing contrib. (-TS)   =      -0.00000000 Ry
     internal energy E=F+TS    =    -381.40451127 Ry

     total magnetization       =     0.00 Bohr mag/cell
     absolute magnetization    =     0.03 Bohr mag/cell

     convergence has been achieved in  11 iterations

     Using ACE for calculation of exact exchange

     total energy              =    -381.40459683 Ry
     Harris-Foulkes estimate   =    -381.40459683 Ry
     est. exchange err (dexx)  =       0.00008556 Ry
     - averaged Fock potential =      27.23773281 Ry
     + Fock energy (ACE)       =     -13.62462413 Ry

     EXX: now go back to refine exchange calculation

     total cpu time spent up to now is      109.5 secs

     Self-consistent Calculation

     iteration #  1     ecut=   800.00 Ry     beta= 0.20
     Davidson diagonalization with overlap
     ethr =  3.80E-13,  avg # of iterations =  9.5

     total cpu time spent up to now is      111.4 secs

     total energy              =    -381.40461125 Ry
     estimated scf accuracy    <       0.00001238 Ry

     total magnetization       =     0.00 Bohr mag/cell
     absolute magnetization    =     0.01 Bohr mag/cell

     iteration #  2     ecut=   800.00 Ry     beta= 0.20
     Davidson diagonalization with overlap
     ethr =  2.69E-08,  avg # of iterations =  2.0

     total cpu time spent up to now is      112.1 secs

     total energy              =    -381.40461096 Ry
     estimated scf accuracy    <       0.00000329 Ry

     total magnetization       =     0.00 Bohr mag/cell
     absolute magnetization    =     0.01 Bohr mag/cell

     iteration #  3     ecut=   800.00 Ry     beta= 0.20
     Davidson diagonalization with overlap
     ethr =  7.16E-09,  avg # of iterations =  2.0

     total cpu time spent up to now is      112.9 secs

     total energy              =    -381.40461177 Ry
     estimated scf accuracy    <       0.00000041 Ry

     total magnetization       =     0.00 Bohr mag/cell
     absolute magnetization    =     0.01 Bohr mag/cell

     iteration #  4     ecut=   800.00 Ry     beta= 0.20
     Davidson diagonalization with overlap
     ethr =  8.82E-10,  avg # of iterations =  1.5

     total cpu time spent up to now is      113.6 secs

     total energy              =    -381.40461184 Ry
     estimated scf accuracy    <       0.00000005 Ry

     total magnetization       =     0.00 Bohr mag/cell
     absolute magnetization    =     0.01 Bohr mag/cell

     iteration #  5     ecut=   800.00 Ry     beta= 0.20
     Davidson diagonalization with overlap
     ethr =  1.08E-10,  avg # of iterations =  2.0

     total cpu time spent up to now is      114.3 secs

     total energy              =    -381.40461185 Ry
     estimated scf accuracy    <          6.0E-09 Ry

     total magnetization       =     0.00 Bohr mag/cell
     absolute magnetization    =     0.01 Bohr mag/cell

     iteration #  6     ecut=   800.00 Ry     beta= 0.20
     Davidson diagonalization with overlap
     ethr =  1.30E-11,  avg # of iterations =  2.0

     total cpu time spent up to now is      115.1 secs

     total energy              =    -381.40461185 Ry
     estimated scf accuracy    <          1.4E-09 Ry

     total magnetization       =     0.00 Bohr mag/cell
     absolute magnetization    =     0.01 Bohr mag/cell

     iteration #  7     ecut=   800.00 Ry     beta= 0.20
     Davidson diagonalization with overlap
     ethr =  2.96E-12,  avg # of iterations =  2.0

     total cpu time spent up to now is      115.9 secs

     total energy              =    -381.40461185 Ry
     estimated scf accuracy    <          5.7E-10 Ry

     total magnetization       =     0.00 Bohr mag/cell
     absolute magnetization    =     0.01 Bohr mag/cell

     iteration #  8     ecut=   800.00 Ry     beta= 0.20
     Davidson diagonalization with overlap
     ethr =  1.25E-12,  avg # of iterations =  2.0
 
     Magnetic moment per site:
     atom:    1    charge:   13.2700    magn:    0.0003    constr:    0.0000
     atom:    2    charge:    0.2208    magn:    0.0001    constr:    0.0000
     atom:    3    charge:    0.2208    magn:    0.0001    constr:    0.0000
     atom:    4    charge:    0.2208    magn:    0.0001    constr:    0.0000
     atom:    5    charge:    5.9503    magn:   -0.0009    constr:    0.0000
     atom:    6    charge:    5.9522    magn:   -0.0009    constr:    0.0000
     atom:    7    charge:    5.9522    magn:   -0.0009    constr:    0.0000
     atom:    8    charge:    5.9522    magn:   -0.0009    constr:    0.0000

     total cpu time spent up to now is      116.6 secs

     End of self-consistent calculation

 ------ SPIN UP ------------


          k = 0.0000 0.0000 0.0000 (192431 PWs)   bands (ev):

   -86.0413 -50.0032 -50.0032 -50.0032 -12.7331 -11.2314 -11.2314 -10.9061
     1.6573   1.6573   1.6573   3.4862   3.4862   3.4862   4.6656   4.6656
     4.6656   4.6921   4.6921   4.6921   6.2505   6.2505   6.2505   9.9216
     9.9216  13.3831  18.1624  18.8372  18.8372  18.8372  19.0303  19.0303

     occupation numbers 
     1.0000   1.0000   1.0000   1.0000   1.0000   1.0000   1.0000   1.0000
     1.0000   1.0000   1.0000   1.0000   1.0000   1.0000   1.0000   1.0000
     1.0000   1.0000   1.0000   1.0000   1.0000   1.0000   1.0000   0.0000
     0.0000   0.0000   0.0000   0.0000   0.0000   0.0000   0.0000   0.0000

 ------ SPIN DOWN ----------


          k = 0.0000 0.0000 0.0000 (192431 PWs)   bands (ev):

   -86.0394 -50.0012 -50.0012 -50.0012 -12.7369 -11.2367 -11.2367 -10.9111
     1.6558   1.6558   1.6558   3.4885   3.4885   3.4885   4.6615   4.6615
     4.6615   4.6878   4.6878   4.6878   6.2448   6.2448   6.2448   9.9230
     9.9230  13.3829  18.1643  18.8402  18.8402  18.8402  19.0324  19.0324

     occupation numbers 
     1.0000   1.0000   1.0000   1.0000   1.0000   1.0000   1.0000   1.0000
     1.0000   1.0000   1.0000   1.0000   1.0000   1.0000   1.0000   1.0000
     1.0000   1.0000   1.0000   1.0000   1.0000   1.0000   1.0000   0.0000
     0.0000   0.0000   0.0000   0.0000   0.0000   0.0000   0.0000   0.0000

     the spin up/dw Fermi energies are     9.2238    9.2238 ev

!    total energy              =    -381.40461185 Ry
     estimated scf accuracy    <          1.4E-11 Ry
     smearing contrib. (-TS)   =      -0.00000000 Ry
     internal energy E=F+TS    =    -381.40461185 Ry

     total magnetization       =     0.00 Bohr mag/cell
     absolute magnetization    =     0.01 Bohr mag/cell

     convergence has been achieved in   8 iterations

     Using ACE for calculation of exact exchange

     total energy              =    -381.40461508 Ry
     Harris-Foulkes estimate   =    -381.40461508 Ry
     est. exchange err (dexx)  =       0.00000323 Ry
     - averaged Fock potential =      27.25076676 Ry
     + Fock energy (ACE)       =     -13.62614586 Ry

     EXX: now go back to refine exchange calculation

     total cpu time spent up to now is      137.7 secs

     Self-consistent Calculation

     iteration #  1     ecut=   800.00 Ry     beta= 0.20
     Davidson diagonalization with overlap
     ethr =  1.25E-12,  avg # of iterations =  7.0

     total cpu time spent up to now is      139.1 secs

     total energy              =    -381.40461583 Ry
     estimated scf accuracy    <       0.00000027 Ry

     total magnetization       =     0.00 Bohr mag/cell
     absolute magnetization    =     0.00 Bohr mag/cell

     iteration #  2     ecut=   800.00 Ry     beta= 0.20
     Davidson diagonalization with overlap
     ethr =  5.95E-10,  avg # of iterations =  2.0

     total cpu time spent up to now is      139.9 secs

     total energy              =    -381.40461586 Ry
     estimated scf accuracy    <       0.00000011 Ry

     total magnetization       =     0.00 Bohr mag/cell
     absolute magnetization    =     0.00 Bohr mag/cell

     iteration #  3     ecut=   800.00 Ry     beta= 0.20
     Davidson diagonalization with overlap
     ethr =  2.31E-10,  avg # of iterations =  2.0

     total cpu time spent up to now is      140.6 secs

     total energy              =    -381.40461589 Ry
     estimated scf accuracy    <       0.00000003 Ry

     total magnetization       =     0.00 Bohr mag/cell
     absolute magnetization    =     0.00 Bohr mag/cell

     iteration #  4     ecut=   800.00 Ry     beta= 0.20
     Davidson diagonalization with overlap
     ethr =  5.83E-11,  avg # of iterations =  2.0

     total cpu time spent up to now is      141.3 secs

     total energy              =    -381.40461590 Ry
     estimated scf accuracy    <          1.4E-09 Ry

     total magnetization       =     0.00 Bohr mag/cell
     absolute magnetization    =     0.00 Bohr mag/cell

     iteration #  5     ecut=   800.00 Ry     beta= 0.20
     Davidson diagonalization with overlap
     ethr =  3.01E-12,  avg # of iterations =  2.0

     total cpu time spent up to now is      142.1 secs

     total energy              =    -381.40461590 Ry
     estimated scf accuracy    <          2.0E-10 Ry

     total magnetization       =     0.00 Bohr mag/cell
     absolute magnetization    =     0.00 Bohr mag/cell

     iteration #  6     ecut=   800.00 Ry     beta= 0.20
     Davidson diagonalization with overlap
     ethr =  4.27E-13,  avg # of iterations =  3.0
 
     Magnetic moment per site:
     atom:    1    charge:   13.2702    magn:    0.0001    constr:    0.0000
     atom:    2    charge:    0.2208    magn:    0.0000    constr:    0.0000
     atom:    3    charge:    0.2208    magn:    0.0000    constr:    0.0000
     atom:    4    charge:    0.2208    magn:    0.0000    constr:    0.0000
     atom:    5    charge:    5.9503    magn:   -0.0003    constr:    0.0000
     atom:    6    charge:    5.9522    magn:   -0.0003    constr:    0.0000
     atom:    7    charge:    5.9522    magn:   -0.0003    constr:    0.0000
     atom:    8    charge:    5.9522    magn:   -0.0003    constr:    0.0000

     total cpu time spent up to now is      142.9 secs

     End of self-consistent calculation

 ------ SPIN UP ------------


          k = 0.0000 0.0000 0.0000 (192431 PWs)   bands (ev):

   -86.0378 -50.0000 -50.0000 -50.0000 -12.7342 -11.2330 -11.2330 -10.9079
     1.6572   1.6572   1.6572   3.4878   3.4878   3.4878   4.6644   4.6644
     4.6644   4.6908   4.6908   4.6908   6.2486   6.2486   6.2486   9.9250
     9.9250  13.3837  18.1638  18.8386  18.8386  18.8386  19.0311  19.0311

     occupation numbers 
     1.0000   1.0000   1.0000   1.0000   1.0000   1.0000   1.0000   1.0000
     1.0000   1.0000   1.0000   1.0000   1.0000   1.0000   1.0000   1.0000
     1.0000   1.0000   1.0000   1.0000   1.0000   1.0000   1.0000   0.0000
     0.0000   0.0000   0.0000   0.0000   0.0000   0.0000   0.0000   0.0000

 ------ SPIN DOWN ----------


          k = 0.0000 0.0000 0.0000 (192431 PWs)   bands (ev):

   -86.0375 -49.9997 -49.9997 -49.9997 -12.7354 -11.2347 -11.2347 -10.9095
     1.6567   1.6567   1.6567   3.4883   3.4883   3.4883   4.6631   4.6631
     4.6631   4.6894   4.6894   4.6894   6.2468   6.2468   6.2468   9.9252
     9.9252  13.3837  18.1644  18.8395  18.8395  18.8395  19.0318  19.0318

     occupation numbers 
     1.0000   1.0000   1.0000   1.0000   1.0000   1.0000   1.0000   1.0000
     1.0000   1.0000   1.0000   1.0000   1.0000   1.0000   1.0000   1.0000
     1.0000   1.0000   1.0000   1.0000   1.0000   1.0000   1.0000   0.0000
     0.0000   0.0000   0.0000   0.0000   0.0000   0.0000   0.0000   0.0000

     the spin up/dw Fermi energies are     9.2235    9.2235 ev

!    total energy              =    -381.40461590 Ry
     estimated scf accuracy    <          4.2E-11 Ry
     smearing contrib. (-TS)   =      -0.00000000 Ry
     internal energy E=F+TS    =    -381.40461590 Ry

     total magnetization       =     0.00 Bohr mag/cell
     absolute magnetization    =     0.00 Bohr mag/cell

     convergence has been achieved in   6 iterations

     Using ACE for calculation of exact exchange

     total energy              =    -381.40461613 Ry
     Harris-Foulkes estimate   =    -381.40461613 Ry
     est. exchange err (dexx)  =       0.00000023 Ry
     - averaged Fock potential =      27.25251137 Ry
     + Fock energy (ACE)       =     -13.62636574 Ry

     EXX: now go back to refine exchange calculation

     total cpu time spent up to now is      163.9 secs

     Self-consistent Calculation

     iteration #  1     ecut=   800.00 Ry     beta= 0.20
     Davidson diagonalization with overlap
     ethr =  4.27E-13,  avg # of iterations =  6.0

     total cpu time spent up to now is      165.2 secs

     total energy              =    -381.40461619 Ry
     estimated scf accuracy    <       0.00000001 Ry

     total magnetization       =     0.00 Bohr mag/cell
     absolute magnetization    =     0.00 Bohr mag/cell

     iteration #  2     ecut=   800.00 Ry     beta= 0.20
     Davidson diagonalization with overlap
     ethr =  2.70E-11,  avg # of iterations =  1.0

     total cpu time spent up to now is      165.8 secs

     total energy              =    -381.40461620 Ry
     estimated scf accuracy    <          6.8E-09 Ry

     total magnetization       =     0.00 Bohr mag/cell
     absolute magnetization    =     0.00 Bohr mag/cell

     iteration #  3     ecut=   800.00 Ry     beta= 0.20
     Davidson diagonalization with overlap
     ethr =  1.49E-11,  avg # of iterations =  2.0

     total cpu time spent up to now is      166.5 secs

     total energy              =    -381.40461620 Ry
     estimated scf accuracy    <          1.9E-09 Ry

     total magnetization       =     0.00 Bohr mag/cell
     absolute magnetization    =     0.00 Bohr mag/cell

     iteration #  4     ecut=   800.00 Ry     beta= 0.20
     Davidson diagonalization with overlap
     ethr =  4.12E-12,  avg # of iterations =  2.0
 
     Magnetic moment per site:
     atom:    1    charge:   13.2702    magn:    0.0000    constr:    0.0000
     atom:    2    charge:    0.2208    magn:    0.0000    constr:    0.0000
     atom:    3    charge:    0.2208    magn:    0.0000    constr:    0.0000
     atom:    4    charge:    0.2208    magn:    0.0000    constr:    0.0000
     atom:    5    charge:    5.9504    magn:   -0.0001    constr:    0.0000
     atom:    6    charge:    5.9523    magn:   -0.0001    constr:    0.0000
     atom:    7    charge:    5.9523    magn:   -0.0001    constr:    0.0000
     atom:    8    charge:    5.9523    magn:   -0.0001    constr:    0.0000

     total cpu time spent up to now is      167.3 secs

     End of self-consistent calculation

 ------ SPIN UP ------------


          k = 0.0000 0.0000 0.0000 (192431 PWs)   bands (ev):

   -86.0374 -49.9996 -49.9996 -49.9996 -12.7346 -11.2336 -11.2336 -10.9084
     1.6571   1.6571   1.6571   3.4880   3.4880   3.4880   4.6640   4.6640
     4.6640   4.6903   4.6903   4.6903   6.2480   6.2480   6.2480   9.9253
     9.9253  13.3838  18.1641  18.8389  18.8389  18.8389  19.0314  19.0314

     occupation numbers 
     1.0000   1.0000   1.0000   1.0000   1.0000   1.0000   1.0000   1.0000
     1.0000   1.0000   1.0000   1.0000   1.0000   1.0000   1.0000   1.0000
     1.0000   1.0000   1.0000   1.0000   1.0000   1.0000   1.0000   0.0000
     0.0000   0.0000   0.0000   0.0000   0.0000   0.0000   0.0000   0.0000

 ------ SPIN DOWN ----------


          k = 0.0000 0.0000 0.0000 (192431 PWs)   bands (ev):

   -86.0373 -49.9996 -49.9996 -49.9996 -12.7350 -11.2341 -11.2341 -10.9089
     1.6569   1.6569   1.6569   3.4881   3.4881   3.4881   4.6636   4.6636
     4.6636   4.6899   4.6899   4.6899   6.2474   6.2474   6.2474   9.9254
     9.9254  13.3838  18.1643  18.8393  18.8393  18.8393  19.0316  19.0316

     occupation numbers 
     1.0000   1.0000   1.0000   1.0000   1.0000   1.0000   1.0000   1.0000
     1.0000   1.0000   1.0000   1.0000   1.0000   1.0000   1.0000   1.0000
     1.0000   1.0000   1.0000   1.0000   1.0000   1.0000   1.0000   0.0000
     0.0000   0.0000   0.0000   0.0000   0.0000   0.0000   0.0000   0.0000

     the spin up/dw Fermi energies are     9.2234    9.2234 ev

!    total energy              =    -381.40461620 Ry
     estimated scf accuracy    <          3.0E-11 Ry
     smearing contrib. (-TS)   =      -0.00000000 Ry
     internal energy E=F+TS    =    -381.40461620 Ry

     total magnetization       =     0.00 Bohr mag/cell
     absolute magnetization    =     0.00 Bohr mag/cell

     convergence has been achieved in   4 iterations

     Using ACE for calculation of exact exchange

     total energy              =    -381.40461622 Ry
     Harris-Foulkes estimate   =    -381.40461622 Ry
     est. exchange err (dexx)  =       0.00000002 Ry
     - averaged Fock potential =      27.25276515 Ry
     + Fock energy (ACE)       =     -13.62639943 Ry

     EXX: now go back to refine exchange calculation

     total cpu time spent up to now is      188.5 secs

     Self-consistent Calculation

     iteration #  1     ecut=   800.00 Ry     beta= 0.20
     Davidson diagonalization with overlap
     ethr =  4.12E-12,  avg # of iterations =  3.5

     total cpu time spent up to now is      189.4 secs

     total energy              =    -381.40461623 Ry
     estimated scf accuracy    <          9.2E-10 Ry

     total magnetization       =     0.00 Bohr mag/cell
     absolute magnetization    =     0.00 Bohr mag/cell

     iteration #  2     ecut=   800.00 Ry     beta= 0.20
     Davidson diagonalization with overlap
     ethr =  2.01E-12,  avg # of iterations =  1.0

     total cpu time spent up to now is      190.1 secs

     total energy              =    -381.40461623 Ry
     estimated scf accuracy    <          6.2E-10 Ry

     total magnetization       =    -0.00 Bohr mag/cell
     absolute magnetization    =     0.00 Bohr mag/cell

     iteration #  3     ecut=   800.00 Ry     beta= 0.20
     Davidson diagonalization with overlap
     ethr =  1.35E-12,  avg # of iterations =  3.0
 
     Magnetic moment per site:
     atom:    1    charge:   13.2702    magn:    0.0000    constr:    0.0000
     atom:    2    charge:    0.2208    magn:    0.0000    constr:    0.0000
     atom:    3    charge:    0.2208    magn:    0.0000    constr:    0.0000
     atom:    4    charge:    0.2208    magn:    0.0000    constr:    0.0000
     atom:    5    charge:    5.9504    magn:   -0.0000    constr:    0.0000
     atom:    6    charge:    5.9523    magn:   -0.0000    constr:    0.0000
     atom:    7    charge:    5.9523    magn:   -0.0000    constr:    0.0000
     atom:    8    charge:    5.9523    magn:   -0.0000    constr:    0.0000

     total cpu time spent up to now is      190.8 secs

     End of self-consistent calculation

 ------ SPIN UP ------------


          k = 0.0000 0.0000 0.0000 (192431 PWs)   bands (ev):

   -86.0373 -49.9995 -49.9995 -49.9995 -12.7347 -11.2337 -11.2337 -10.9086
     1.6570   1.6570   1.6570   3.4881   3.4881   3.4881   4.6639   4.6639
     4.6639   4.6902   4.6902   4.6902   6.2478   6.2478   6.2478   9.9255
     9.9255  13.3838  18.1642  18.8390  18.8390  18.8390  19.0314  19.0314

     occupation numbers 
     1.0000   1.0000   1.0000   1.0000   1.0000   1.0000   1.0000   1.0000
     1.0000   1.0000   1.0000   1.0000   1.0000   1.0000   1.0000   1.0000
     1.0000   1.0000   1.0000   1.0000   1.0000   1.0000   1.0000   0.0000
     0.0000   0.0000   0.0000   0.0000   0.0000   0.0000   0.0000   0.0000

 ------ SPIN DOWN ----------


          k = 0.0000 0.0000 0.0000 (192431 PWs)   bands (ev):

   -86.0373 -49.9995 -49.9995 -49.9995 -12.7348 -11.2339 -11.2339 -10.9088
     1.6570   1.6570   1.6570   3.4881   3.4881   3.4881   4.6637   4.6637
     4.6637   4.6900   4.6900   4.6900   6.2476   6.2476   6.2476   9.9255
     9.9255  13.3838  18.1643  18.8392  18.8392  18.8392  19.0315  19.0315

     occupation numbers 
     1.0000   1.0000   1.0000   1.0000   1.0000   1.0000   1.0000   1.0000
     1.0000   1.0000   1.0000   1.0000   1.0000   1.0000   1.0000   1.0000
     1.0000   1.0000   1.0000   1.0000   1.0000   1.0000   1.0000   0.0000
     0.0000   0.0000   0.0000   0.0000   0.0000   0.0000   0.0000   0.0000

     the spin up/dw Fermi energies are     9.2233    9.2233 ev

!    total energy              =    -381.40461623 Ry
     estimated scf accuracy    <          7.3E-11 Ry
     smearing contrib. (-TS)   =      -0.00000000 Ry
     internal energy E=F+TS    =    -381.40461623 Ry

     total magnetization       =     0.00 Bohr mag/cell
     absolute magnetization    =     0.00 Bohr mag/cell

     convergence has been achieved in   3 iterations

     Using ACE for calculation of exact exchange

     total energy              =    -381.40461623 Ry
     Harris-Foulkes estimate   =    -381.40461623 Ry
     est. exchange err (dexx)  =          2.1E-09 Ry
     - averaged Fock potential =      27.25280155 Ry
     + Fock energy (ACE)       =     -13.62640212 Ry

     EXX: now go back to refine exchange calculation

     total cpu time spent up to now is      211.8 secs

     Self-consistent Calculation

     iteration #  1     ecut=   800.00 Ry     beta= 0.20
     Davidson diagonalization with overlap
     ethr =  1.35E-12,  avg # of iterations =  3.5

     total cpu time spent up to now is      212.7 secs

     total energy              =    -381.40461623 Ry
     estimated scf accuracy    <          1.7E-10 Ry

     total magnetization       =     0.00 Bohr mag/cell
     absolute magnetization    =     0.00 Bohr mag/cell

     iteration #  2     ecut=   800.00 Ry     beta= 0.20
     Davidson diagonalization with overlap
     ethr =  3.63E-13,  avg # of iterations =  1.5
 
     Magnetic moment per site:
     atom:    1    charge:   13.2702    magn:   -0.0000    constr:    0.0000
     atom:    2    charge:    0.2208    magn:    0.0000    constr:    0.0000
     atom:    3    charge:    0.2208    magn:    0.0000    constr:    0.0000
     atom:    4    charge:    0.2208    magn:    0.0000    constr:    0.0000
     atom:    5    charge:    5.9504    magn:   -0.0000    constr:    0.0000
     atom:    6    charge:    5.9523    magn:   -0.0000    constr:    0.0000
     atom:    7    charge:    5.9523    magn:   -0.0000    constr:    0.0000
     atom:    8    charge:    5.9523    magn:   -0.0000    constr:    0.0000

     total cpu time spent up to now is      213.4 secs

     End of self-consistent calculation

 ------ SPIN UP ------------


          k = 0.0000 0.0000 0.0000 (192431 PWs)   bands (ev):

   -86.0373 -49.9995 -49.9995 -49.9995 -12.7347 -11.2338 -11.2338 -10.9086
     1.6570   1.6570   1.6570   3.4881   3.4881   3.4881   4.6638   4.6638
     4.6638   4.6901   4.6901   4.6901   6.2477   6.2477   6.2477   9.9254
     9.9254  13.3838  18.1642  18.8391  18.8391  18.8391  19.0314  19.0314

     occupation numbers 
     1.0000   1.0000   1.0000   1.0000   1.0000   1.0000   1.0000   1.0000
     1.0000   1.0000   1.0000   1.0000   1.0000   1.0000   1.0000   1.0000
     1.0000   1.0000   1.0000   1.0000   1.0000   1.0000   1.0000   0.0000
     0.0000   0.0000   0.0000   0.0000   0.0000   0.0000   0.0000   0.0000

 ------ SPIN DOWN ----------


          k = 0.0000 0.0000 0.0000 (192431 PWs)   bands (ev):

   -86.0373 -49.9995 -49.9995 -49.9995 -12.7348 -11.2339 -11.2339 -10.9087
     1.6570   1.6570   1.6570   3.4881   3.4881   3.4881   4.6637   4.6637
     4.6637   4.6900   4.6900   4.6900   6.2477   6.2477   6.2477   9.9255
     9.9255  13.3838  18.1642  18.8391  18.8391  18.8391  19.0315  19.0315

     occupation numbers 
     1.0000   1.0000   1.0000   1.0000   1.0000   1.0000   1.0000   1.0000
     1.0000   1.0000   1.0000   1.0000   1.0000   1.0000   1.0000   1.0000
     1.0000   1.0000   1.0000   1.0000   1.0000   1.0000   1.0000   0.0000
     0.0000   0.0000   0.0000   0.0000   0.0000   0.0000   0.0000   0.0000

     the spin up/dw Fermi energies are     9.2233    9.2233 ev

!    total energy              =    -381.40461623 Ry
     estimated scf accuracy    <          9.6E-11 Ry
     smearing contrib. (-TS)   =      -0.00000000 Ry
     internal energy E=F+TS    =    -381.40461623 Ry

     total magnetization       =    -0.00 Bohr mag/cell
     absolute magnetization    =     0.00 Bohr mag/cell

     convergence has been achieved in   2 iterations

     Using ACE for calculation of exact exchange

     total energy              =    -381.40461623 Ry
     Harris-Foulkes estimate   =    -381.40461623 Ry
     est. exchange err (dexx)  =          2.2E-10 Ry
     - averaged Fock potential =      27.25280932 Ry
     + Fock energy (ACE)       =     -13.62640720 Ry

     EXX: now go back to refine exchange calculation

     total cpu time spent up to now is      234.6 secs

     Self-consistent Calculation

     iteration #  1     ecut=   800.00 Ry     beta= 0.20
     Davidson diagonalization with overlap
     ethr =  3.63E-13,  avg # of iterations =  3.0
 
     Magnetic moment per site:
     atom:    1    charge:   13.2702    magn:   -0.0000    constr:    0.0000
     atom:    2    charge:    0.2208    magn:    0.0000    constr:    0.0000
     atom:    3    charge:    0.2208    magn:    0.0000    constr:    0.0000
     atom:    4    charge:    0.2208    magn:    0.0000    constr:    0.0000
     atom:    5    charge:    5.9504    magn:   -0.0000    constr:    0.0000
     atom:    6    charge:    5.9523    magn:   -0.0000    constr:    0.0000
     atom:    7    charge:    5.9523    magn:   -0.0000    constr:    0.0000
     atom:    8    charge:    5.9523    magn:   -0.0000    constr:    0.0000

     total cpu time spent up to now is      235.4 secs

     End of self-consistent calculation

 ------ SPIN UP ------------


          k = 0.0000 0.0000 0.0000 (192431 PWs)   bands (ev):

   -86.0373 -49.9995 -49.9995 -49.9995 -12.7347 -11.2338 -11.2338 -10.9086
     1.6570   1.6570   1.6570   3.4881   3.4881   3.4881   4.6638   4.6638
     4.6638   4.6901   4.6901   4.6901   6.2477   6.2477   6.2477   9.9255
     9.9255  13.3838  18.1642  18.8391  18.8391  18.8391  19.0315  19.0315

     occupation numbers 
     1.0000   1.0000   1.0000   1.0000   1.0000   1.0000   1.0000   1.0000
     1.0000   1.0000   1.0000   1.0000   1.0000   1.0000   1.0000   1.0000
     1.0000   1.0000   1.0000   1.0000   1.0000   1.0000   1.0000   0.0000
     0.0000   0.0000   0.0000   0.0000   0.0000   0.0000   0.0000   0.0000

 ------ SPIN DOWN ----------


          k = 0.0000 0.0000 0.0000 (192431 PWs)   bands (ev):

   -86.0373 -49.9995 -49.9995 -49.9995 -12.7348 -11.2338 -11.2338 -10.9087
     1.6570   1.6570   1.6570   3.4881   3.4881   3.4881   4.6638   4.6638
     4.6638   4.6901   4.6901   4.6901   6.2477   6.2477   6.2477   9.9255
     9.9255  13.3838  18.1642  18.8391  18.8391  18.8391  19.0315  19.0315

     occupation numbers 
     1.0000   1.0000   1.0000   1.0000   1.0000   1.0000   1.0000   1.0000
     1.0000   1.0000   1.0000   1.0000   1.0000   1.0000   1.0000   1.0000
     1.0000   1.0000   1.0000   1.0000   1.0000   1.0000   1.0000   0.0000
     0.0000   0.0000   0.0000   0.0000   0.0000   0.0000   0.0000   0.0000

     the spin up/dw Fermi energies are     9.2233    9.2233 ev

!    total energy              =    -381.40461623 Ry
     estimated scf accuracy    <          4.3E-11 Ry
     smearing contrib. (-TS)   =      -0.00000000 Ry
     internal energy E=F+TS    =    -381.40461623 Ry

     total magnetization       =     0.00 Bohr mag/cell
     absolute magnetization    =     0.00 Bohr mag/cell

     convergence has been achieved in   1 iterations

     Using ACE for calculation of exact exchange

!!   total energy              =    -381.40461623 Ry
     Harris-Foulkes estimate   =    -381.40461623 Ry
     est. exchange err (dexx)  =          3.7E-11 Ry
     - averaged Fock potential =      27.25281069 Ry
     + Fock energy (ACE)       =     -13.62640350 Ry

     EXX self-consistency reached

     Forces acting on atoms (cartesian axes, Ry/au):

     atom    1 type  1   force =     0.00000000   -0.00000000    0.00000000
     atom    2 type  2   force =     0.00000000    0.00000000    0.00000000
     atom    3 type  2   force =     0.00000000   -0.00000000    0.00000000
     atom    4 type  2   force =     0.00000000    0.00000000   -0.00000000
     atom    5 type  3   force =     0.00000000    0.00000000    0.00000000
     atom    6 type  3   force =     0.00000000    0.00000000    0.00000000
     atom    7 type  3   force =     0.00000000    0.00000000    0.00000000
     atom    8 type  3   force =     0.00000000    0.00000000    0.00000000
     The non-local contrib.  to forces
     atom    1 type  1   force =     0.00000000    0.00000000    0.00000000
     atom    2 type  2   force =     0.00000000    0.00000000    0.00000000
     atom    3 type  2   force =     0.00000000    0.00000000    0.00000000
     atom    4 type  2   force =     0.00000000   -0.00000000    0.00000000
     atom    5 type  3   force =     0.00000000    0.00000000    0.00000000
     atom    6 type  3   force =     0.00000000    0.00000000    0.00000000
     atom    7 type  3   force =     0.00000000    0.00000000    0.00000000
     atom    8 type  3   force =     0.00000000    0.00000000    0.00000000
     The ionic contribution  to forces
     atom    1 type  1   force =    -0.00000000   -0.00000000   -0.00000000
     atom    2 type  2   force =    -0.00000000    0.00000000    0.00000000
     atom    3 type  2   force =     0.00000000   -0.00000000    0.00000000
     atom    4 type  2   force =     0.00000000    0.00000000   -0.00000000
     atom    5 type  3   force =     0.00000000    0.00000000    0.00000000
     atom    6 type  3   force =     0.00000000   -0.00000000   -0.00000000
     atom    7 type  3   force =    -0.00000000    0.00000000   -0.00000000
     atom    8 type  3   force =    -0.00000000   -0.00000000    0.00000000
     The local contribution  to forces
     atom    1 type  1   force =     0.00000000    0.00000000    0.00000000
     atom    2 type  2   force =    -0.00000000    0.00000000    0.00000000
     atom    3 type  2   force =     0.00000000   -0.00000000    0.00000000
     atom    4 type  2   force =     0.00000000    0.00000000   -0.00000000
     atom    5 type  3   force =     0.00000000    0.00000000    0.00000000
     atom    6 type  3   force =     0.00000000    0.00000000    0.00000000
     atom    7 type  3   force =     0.00000000    0.00000000    0.00000000
     atom    8 type  3   force =     0.00000000    0.00000000    0.00000000
     The core correction contribution to forces
     atom    1 type  1   force =     0.00000000    0.00000000    0.00000000
     atom    2 type  2   force =     0.00000000    0.00000000    0.00000000
     atom    3 type  2   force =     0.00000000    0.00000000    0.00000000
     atom    4 type  2   force =     0.00000000    0.00000000    0.00000000
     atom    5 type  3   force =     0.00000000    0.00000000    0.00000000
     atom    6 type  3   force =     0.00000000    0.00000000    0.00000000
     atom    7 type  3   force =     0.00000000    0.00000000    0.00000000
     atom    8 type  3   force =     0.00000000    0.00000000    0.00000000
     The Hubbard contrib.    to forces
     atom    1 type  1   force =     0.00000000    0.00000000    0.00000000
     atom    2 type  2   force =     0.00000000    0.00000000    0.00000000
     atom    3 type  2   force =     0.00000000    0.00000000    0.00000000
     atom    4 type  2   force =     0.00000000    0.00000000    0.00000000
     atom    5 type  3   force =     0.00000000    0.00000000    0.00000000
     atom    6 type  3   force =     0.00000000    0.00000000    0.00000000
     atom    7 type  3   force =     0.00000000    0.00000000    0.00000000
     atom    8 type  3   force =     0.00000000    0.00000000    0.00000000
     The SCF correction term to forces
     atom    1 type  1   force =    -0.00000000    0.00000000   -0.00000000
     atom    2 type  2   force =    -0.00000000   -0.00000000   -0.00000000
     atom    3 type  2   force =     0.00000000    0.00000000   -0.00000000
     atom    4 type  2   force =     0.00000000    0.00000000   -0.00000000
     atom    5 type  3   force =     0.00000000    0.00000000    0.00000000
     atom    6 type  3   force =    -0.00000000    0.00000000   -0.00000000
     atom    7 type  3   force =     0.00000000    0.00000000   -0.00000000
     atom    8 type  3   force =     0.00000000    0.00000000   -0.00000000

     Total force =     0.000000     Total SCF correction =     0.000000


     Computing stress (Cartesian axis) and pressure

          total   stress  (Ry/bohr**3)                   (kbar)     P=      -42.84
  -0.00029125   0.00000000   0.00000000          -42.84        0.00        0.00
   0.00000000  -0.00029125   0.00000000            0.00      -42.84        0.00
   0.00000000   0.00000000  -0.00029125            0.00        0.00      -42.84

     kinetic stress (kbar)  48172.77      0.00      0.00
                                0.00  48172.77      0.00
                                0.00      0.00  48172.77

     local   stress (kbar) -16913.18      0.00      0.00
                                0.00 -16913.18     -0.00
                                0.00     -0.00 -16913.18

     nonloc. stress (kbar) -17476.50      0.00      0.00
                                0.00 -17476.50      0.00
                                0.00      0.00 -17476.50

     hartree stress (kbar)  14177.04      0.00     -0.00
                                0.00  14177.04      0.00
                               -0.00      0.00  14177.04

     exc-cor stress (kbar)  -4077.00      0.00      0.00
                                0.00  -4077.00      0.00
                                0.00      0.00  -4077.00

     corecor stress (kbar)      0.00      0.00      0.00
                                0.00      0.00      0.00
                                0.00      0.00      0.00

     ewald   stress (kbar) -22428.97      0.00     -0.00
                                0.00 -22428.97      0.00
                               -0.00      0.00 -22428.97

     hubbard stress (kbar)      0.00      0.00      0.00
                                0.00      0.00      0.00
                                0.00      0.00      0.00

     DFT-D   stress (kbar)      0.00      0.00      0.00
                                0.00      0.00      0.00
                                0.00      0.00      0.00

     XDM     stress (kbar)      0.00      0.00      0.00
                                0.00      0.00      0.00
                                0.00      0.00      0.00

     dft-nl  stress (kbar)      0.00      0.00      0.00
                                0.00      0.00      0.00
                                0.00      0.00      0.00

     TS-vdW  stress (kbar)      0.00      0.00      0.00
                                0.00      0.00      0.00
                                0.00      0.00      0.00


     EXX     stress (kbar)  -1497.00      0.00      0.00
                                0.00  -1497.00      0.00
                                0.00      0.00  -1497.00



     Writing output data file pwscf_output/pwscf.save/
 
     init_run     :      1.09s CPU      1.88s WALL (       1 calls)
     electrons    :     62.43s CPU     72.34s WALL (       9 calls)
     forces       :      0.12s CPU      0.12s WALL (       1 calls)
     stress       :      7.25s CPU      7.79s WALL (       1 calls)

     Called by init_run:
     wfcinit      :      0.36s CPU      0.49s WALL (       1 calls)
     wfcinit:atom :      0.00s CPU      0.00s WALL (       2 calls)
     wfcinit:wfcr :      0.34s CPU      0.47s WALL (       2 calls)
     potinit      :      0.14s CPU      0.67s WALL (       1 calls)
     hinit0       :      0.09s CPU      0.17s WALL (       1 calls)

     Called by electrons:
     c_bands      :     43.16s CPU     43.56s WALL (      76 calls)
     sum_band     :      7.95s CPU      8.13s WALL (      76 calls)
     v_of_rho     :      8.05s CPU      8.55s WALL (      78 calls)
     v_h          :      0.31s CPU      0.34s WALL (      78 calls)
     v_xc         :      7.74s CPU      8.21s WALL (      78 calls)
     mix_rho      :      2.69s CPU      2.79s WALL (      76 calls)

     Called by c_bands:
     init_us_2    :      0.33s CPU      0.34s WALL (     310 calls)
     cegterg      :     42.28s CPU     42.65s WALL (     152 calls)

     Called by sum_band:
     sum_band:wei :      0.00s CPU      0.00s WALL (      76 calls)
     sum_band:loo :      6.46s CPU      6.52s WALL (      76 calls)
     sum_band:buf :      0.22s CPU      0.22s WALL (     152 calls)
     sum_band:ini :      0.16s CPU      0.16s WALL (     152 calls)

     Called by *egterg:
     cdiaghg      :      2.21s CPU      2.31s WALL (     534 calls)
     cegterg:over :      3.31s CPU      3.33s WALL (     398 calls)
     cegterg:upda :      2.30s CPU      2.32s WALL (     398 calls)
     cegterg:last :      2.61s CPU      2.62s WALL (     337 calls)
     cdiaghg:chol :      0.15s CPU      0.19s WALL (     534 calls)
     cdiaghg:inve :      0.03s CPU      0.03s WALL (     534 calls)
     cdiaghg:para :      0.15s CPU      0.15s WALL (    1068 calls)
     h_psi        :     31.03s CPU     31.36s WALL (     552 calls)
     g_psi        :      0.15s CPU      0.15s WALL (     398 calls)

     Called by h_psi:
     h_psi:calbec :      0.74s CPU      0.76s WALL (     552 calls)
     vloc_psi     :     27.23s CPU     27.51s WALL (     552 calls)
     add_vuspsi   :      0.92s CPU      0.94s WALL (     552 calls)

     General routines
     calbec       :      1.48s CPU      1.50s WALL (    1039 calls)
     fft          :      3.48s CPU      4.03s WALL (    1471 calls)
     ffts         :      0.32s CPU      0.36s WALL (     152 calls)
     fftw         :     27.88s CPU     28.17s WALL (   30946 calls)
     fftc         :     91.06s CPU    103.37s WALL (   38336 calls)
     fftcw        :      3.49s CPU      3.57s WALL (    1792 calls)
 
     Parallel routines
     fft_scatt_xy :     14.77s CPU     14.97s WALL (   72697 calls)
     fft_scatt_yz :     64.76s CPU     77.08s WALL (   72697 calls)

     EXX routines
     exx_grid     :      0.00s CPU      0.00s WALL (       1 calls)
     exxinit      :     34.97s CPU     43.44s WALL (       9 calls)
     vexx         :    123.32s CPU    136.47s WALL (      18 calls)
     matcalc      :      0.71s CPU      0.72s WALL (     477 calls)
     aceupdate    :      0.04s CPU      0.05s WALL (      18 calls)
     vexxace      :      1.88s CPU      1.89s WALL (     425 calls)
     aceinit      :    123.45s CPU    136.62s WALL (      18 calls)
 
     PWSCF        :   3m49.89s CPU   4m48.20s WALL

 
   This run was terminated on:  14:11:41  19Nov2021            

=------------------------------------------------------------------------------=
   JOB DONE.
=------------------------------------------------------------------------------=
