
     Program PWSCF v.6.7MaX starts on 27Nov2021 at 15:20:41 

     This program is part of the open-source Quantum ESPRESSO suite
     for quantum simulation of materials; please cite
         "P. Giannozzi et al., J. Phys.:Condens. Matter 21 395502 (2009);
         "P. Giannozzi et al., J. Phys.:Condens. Matter 29 465901 (2017);
          URL http://www.quantum-espresso.org", 
     in publications or presentations arising from this work. More details at
     http://www.quantum-espresso.org/quote

     Parallel version (MPI), running on    48 processors

     MPI processes distributed on     1 nodes
     R & G space division:  proc/nbgrp/npool/nimage =      48
     Reading input from scf.in

     Current dimensions of program PWSCF are:
     Max number of different atomic species (ntypx) = 10
     Max number of k-points (npk) =  40000
     Max angular momentum in pseudopotentials (lmaxx) =  3
     Message from routine scan_end:
     No INFO block end statement, possibly corrupted file
     Message from routine scan_end:
     No INFO block end statement, possibly corrupted file
     Message from routine scan_end:
     No INFO block end statement, possibly corrupted file

     IMPORTANT: XC functional enforced from input :
     Exchange-correlation= PBE
                           (   1   4   3   4   0   0   0)
     Any further DFT definition will be discarded
     Please, verify this is what you really want


     Subspace diagonalization in iterative solution of the eigenvalue problem:
     one sub-group per band group will be used
     scalapack distributed-memory algorithm (size of sub-group:  6*  6 procs)

 
     Parallelization info
     --------------------
     sticks:   dense  smooth     PW     G-vecs:    dense   smooth      PW
     Min         336     336     87                32092    32092    4297
     Max         337     337     88                32097    32097    4304
     Sum       16141   16141   4221              1540499  1540499  206437
 


     bravais-lattice index     =            1
     lattice parameter (alat)  =       7.9576  a.u.
     unit-cell volume          =     503.9013 (a.u.)^3
     number of atoms/cell      =            8
     number of atomic types    =            3
     number of electrons       =        46.00 (up:  23.00, down:  23.00)
     number of Kohn-Sham states=           32
     kinetic-energy cutoff     =     800.0000  Ry
     charge density cutoff     =    3200.0000  Ry
     scf convergence threshold =      1.0E-10
     mixing beta               =       0.3000
     number of iterations used =            8  plain     mixing
     Exchange-correlation= PBE
                           (   1   4   3   4   0   0   0)

     celldm(1)=   7.957595  celldm(2)=   0.000000  celldm(3)=   0.000000
     celldm(4)=   0.000000  celldm(5)=   0.000000  celldm(6)=   0.000000

     crystal axes: (cart. coord. in units of alat)
               a(1) = (   1.000000   0.000000   0.000000 )  
               a(2) = (   0.000000   1.000000   0.000000 )  
               a(3) = (   0.000000   0.000000   1.000000 )  

     reciprocal axes: (cart. coord. in units 2 pi/alat)
               b(1) = (  1.000000  0.000000  0.000000 )  
               b(2) = (  0.000000  1.000000  0.000000 )  
               b(3) = (  0.000000  0.000000  1.000000 )  


     PseudoPot. # 1 for Fe read from file:
     /ascldap/users/jptowns/ferropericlase_spintransition/pseudos/Fe.ccECP.upf
     MD5 check sum: 375ee7e2ce333dc2f1485c86089d969e
     Pseudo is Norm-conserving, Zval = 16.0
     Generated by new atomic code, or converted to UPF format
     Using radial grid of 1160 points,  2 beta functions with: 
                l(1) =   1
                l(2) =   2

     PseudoPot. # 2 for Mg read from file:
     /ascldap/users/jptowns/ferropericlase_spintransition/pseudos/Mg.ccECP.upf
     MD5 check sum: 94218cb30fa6b3f6810c07405bb1118c
     Pseudo is Norm-conserving, Zval =  2.0
     Generated by new atomic code, or converted to UPF format
     Using radial grid of 1140 points,  2 beta functions with: 
                l(1) =   0
                l(2) =   2

     PseudoPot. # 3 for O  read from file:
     /ascldap/users/jptowns/ferropericlase_spintransition/pseudos/O.ccECP.upf
     MD5 check sum: f8511452b848d8673c004e477b4fc277
     Pseudo is Norm-conserving, Zval =  6.0
     Generated by new atomic code, or converted to UPF format
     Using radial grid of 1130 points,  1 beta functions with: 
                l(1) =   0

     atomic species   valence    mass     pseudopotential
        Fe            16.00    55.84500     Fe( 1.00)
        Mg             2.00    24.30500     Mg( 1.00)
        O              6.00    15.99900     O ( 1.00)

     Starting magnetic structure 
     atomic species   magnetization
        Fe           0.000
        Mg           0.000
        O            0.000


     Simplified LDA+U calculation (l_max = 2) with parameters (eV):
     atomic species    L          U    alpha       J0     beta
        Fe             2     5.0000   0.0000   0.0000   0.0000



     48 Sym. Ops., with inversion, found


                                    s                        frac. trans.

      isym =  1     identity                                     

 cryst.   s( 1) = (     1          0          0      )
                  (     0          1          0      )
                  (     0          0          1      )

 cart.    s( 1) = (  1.0000000  0.0000000  0.0000000 )
                  (  0.0000000  1.0000000  0.0000000 )
                  (  0.0000000  0.0000000  1.0000000 )


      isym =  2     180 deg rotation - cart. axis [0,0,1]        

 cryst.   s( 2) = (    -1          0          0      )
                  (     0         -1          0      )
                  (     0          0          1      )

 cart.    s( 2) = ( -1.0000000  0.0000000  0.0000000 )
                  (  0.0000000 -1.0000000  0.0000000 )
                  (  0.0000000  0.0000000  1.0000000 )


      isym =  3     180 deg rotation - cart. axis [0,1,0]        

 cryst.   s( 3) = (    -1          0          0      )
                  (     0          1          0      )
                  (     0          0         -1      )

 cart.    s( 3) = ( -1.0000000  0.0000000  0.0000000 )
                  (  0.0000000  1.0000000  0.0000000 )
                  (  0.0000000  0.0000000 -1.0000000 )


      isym =  4     180 deg rotation - cart. axis [1,0,0]        

 cryst.   s( 4) = (     1          0          0      )
                  (     0         -1          0      )
                  (     0          0         -1      )

 cart.    s( 4) = (  1.0000000  0.0000000  0.0000000 )
                  (  0.0000000 -1.0000000  0.0000000 )
                  (  0.0000000  0.0000000 -1.0000000 )


      isym =  5     180 deg rotation - cart. axis [1,1,0]        

 cryst.   s( 5) = (     0          1          0      )
                  (     1          0          0      )
                  (     0          0         -1      )

 cart.    s( 5) = (  0.0000000  1.0000000  0.0000000 )
                  (  1.0000000  0.0000000  0.0000000 )
                  (  0.0000000  0.0000000 -1.0000000 )


      isym =  6     180 deg rotation - cart. axis [1,-1,0]       

 cryst.   s( 6) = (     0         -1          0      )
                  (    -1          0          0      )
                  (     0          0         -1      )

 cart.    s( 6) = (  0.0000000 -1.0000000  0.0000000 )
                  ( -1.0000000  0.0000000  0.0000000 )
                  (  0.0000000  0.0000000 -1.0000000 )


      isym =  7      90 deg rotation - cart. axis [0,0,-1]       

 cryst.   s( 7) = (     0         -1          0      )
                  (     1          0          0      )
                  (     0          0          1      )

 cart.    s( 7) = (  0.0000000  1.0000000  0.0000000 )
                  ( -1.0000000  0.0000000  0.0000000 )
                  (  0.0000000  0.0000000  1.0000000 )


      isym =  8      90 deg rotation - cart. axis [0,0,1]        

 cryst.   s( 8) = (     0          1          0      )
                  (    -1          0          0      )
                  (     0          0          1      )

 cart.    s( 8) = (  0.0000000 -1.0000000  0.0000000 )
                  (  1.0000000  0.0000000  0.0000000 )
                  (  0.0000000  0.0000000  1.0000000 )


      isym =  9     180 deg rotation - cart. axis [1,0,1]        

 cryst.   s( 9) = (     0          0          1      )
                  (     0         -1          0      )
                  (     1          0          0      )

 cart.    s( 9) = (  0.0000000  0.0000000  1.0000000 )
                  (  0.0000000 -1.0000000  0.0000000 )
                  (  1.0000000  0.0000000  0.0000000 )


      isym = 10     180 deg rotation - cart. axis [-1,0,1]       

 cryst.   s(10) = (     0          0         -1      )
                  (     0         -1          0      )
                  (    -1          0          0      )

 cart.    s(10) = (  0.0000000  0.0000000 -1.0000000 )
                  (  0.0000000 -1.0000000  0.0000000 )
                  ( -1.0000000  0.0000000  0.0000000 )


      isym = 11      90 deg rotation - cart. axis [0,1,0]        

 cryst.   s(11) = (     0          0         -1      )
                  (     0          1          0      )
                  (     1          0          0      )

 cart.    s(11) = (  0.0000000  0.0000000  1.0000000 )
                  (  0.0000000  1.0000000  0.0000000 )
                  ( -1.0000000  0.0000000  0.0000000 )


      isym = 12      90 deg rotation - cart. axis [0,-1,0]       

 cryst.   s(12) = (     0          0          1      )
                  (     0          1          0      )
                  (    -1          0          0      )

 cart.    s(12) = (  0.0000000  0.0000000 -1.0000000 )
                  (  0.0000000  1.0000000  0.0000000 )
                  (  1.0000000  0.0000000  0.0000000 )


      isym = 13     180 deg rotation - cart. axis [0,1,1]        

 cryst.   s(13) = (    -1          0          0      )
                  (     0          0          1      )
                  (     0          1          0      )

 cart.    s(13) = ( -1.0000000  0.0000000  0.0000000 )
                  (  0.0000000  0.0000000  1.0000000 )
                  (  0.0000000  1.0000000  0.0000000 )


      isym = 14     180 deg rotation - cart. axis [0,1,-1]       

 cryst.   s(14) = (    -1          0          0      )
                  (     0          0         -1      )
                  (     0         -1          0      )

 cart.    s(14) = ( -1.0000000  0.0000000  0.0000000 )
                  (  0.0000000  0.0000000 -1.0000000 )
                  (  0.0000000 -1.0000000  0.0000000 )


      isym = 15      90 deg rotation - cart. axis [-1,0,0]       

 cryst.   s(15) = (     1          0          0      )
                  (     0          0         -1      )
                  (     0          1          0      )

 cart.    s(15) = (  1.0000000  0.0000000  0.0000000 )
                  (  0.0000000  0.0000000  1.0000000 )
                  (  0.0000000 -1.0000000  0.0000000 )


      isym = 16      90 deg rotation - cart. axis [1,0,0]        

 cryst.   s(16) = (     1          0          0      )
                  (     0          0          1      )
                  (     0         -1          0      )

 cart.    s(16) = (  1.0000000  0.0000000  0.0000000 )
                  (  0.0000000  0.0000000 -1.0000000 )
                  (  0.0000000  1.0000000  0.0000000 )


      isym = 17     120 deg rotation - cart. axis [-1,-1,-1]     

 cryst.   s(17) = (     0          0          1      )
                  (     1          0          0      )
                  (     0          1          0      )

 cart.    s(17) = (  0.0000000  1.0000000  0.0000000 )
                  (  0.0000000  0.0000000  1.0000000 )
                  (  1.0000000  0.0000000  0.0000000 )


      isym = 18     120 deg rotation - cart. axis [-1,1,1]       

 cryst.   s(18) = (     0          0         -1      )
                  (    -1          0          0      )
                  (     0          1          0      )

 cart.    s(18) = (  0.0000000 -1.0000000  0.0000000 )
                  (  0.0000000  0.0000000  1.0000000 )
                  ( -1.0000000  0.0000000  0.0000000 )


      isym = 19     120 deg rotation - cart. axis [1,1,-1]       

 cryst.   s(19) = (     0          0         -1      )
                  (     1          0          0      )
                  (     0         -1          0      )

 cart.    s(19) = (  0.0000000  1.0000000  0.0000000 )
                  (  0.0000000  0.0000000 -1.0000000 )
                  ( -1.0000000  0.0000000  0.0000000 )


      isym = 20     120 deg rotation - cart. axis [1,-1,1]       

 cryst.   s(20) = (     0          0          1      )
                  (    -1          0          0      )
                  (     0         -1          0      )

 cart.    s(20) = (  0.0000000 -1.0000000  0.0000000 )
                  (  0.0000000  0.0000000 -1.0000000 )
                  (  1.0000000  0.0000000  0.0000000 )


      isym = 21     120 deg rotation - cart. axis [1,1,1]        

 cryst.   s(21) = (     0          1          0      )
                  (     0          0          1      )
                  (     1          0          0      )

 cart.    s(21) = (  0.0000000  0.0000000  1.0000000 )
                  (  1.0000000  0.0000000  0.0000000 )
                  (  0.0000000  1.0000000  0.0000000 )


      isym = 22     120 deg rotation - cart. axis [-1,1,-1]      

 cryst.   s(22) = (     0         -1          0      )
                  (     0          0         -1      )
                  (     1          0          0      )

 cart.    s(22) = (  0.0000000  0.0000000  1.0000000 )
                  ( -1.0000000  0.0000000  0.0000000 )
                  (  0.0000000 -1.0000000  0.0000000 )


      isym = 23     120 deg rotation - cart. axis [1,-1,-1]      

 cryst.   s(23) = (     0         -1          0      )
                  (     0          0          1      )
                  (    -1          0          0      )

 cart.    s(23) = (  0.0000000  0.0000000 -1.0000000 )
                  ( -1.0000000  0.0000000  0.0000000 )
                  (  0.0000000  1.0000000  0.0000000 )


      isym = 24     120 deg rotation - cart. axis [-1,-1,1]      

 cryst.   s(24) = (     0          1          0      )
                  (     0          0         -1      )
                  (    -1          0          0      )

 cart.    s(24) = (  0.0000000  0.0000000 -1.0000000 )
                  (  1.0000000  0.0000000  0.0000000 )
                  (  0.0000000 -1.0000000  0.0000000 )


      isym = 25     inversion                                    

 cryst.   s(25) = (    -1          0          0      )
                  (     0         -1          0      )
                  (     0          0         -1      )

 cart.    s(25) = ( -1.0000000  0.0000000  0.0000000 )
                  (  0.0000000 -1.0000000  0.0000000 )
                  (  0.0000000  0.0000000 -1.0000000 )


      isym = 26     inv. 180 deg rotation - cart. axis [0,0,1]   

 cryst.   s(26) = (     1          0          0      )
                  (     0          1          0      )
                  (     0          0         -1      )

 cart.    s(26) = (  1.0000000  0.0000000  0.0000000 )
                  (  0.0000000  1.0000000  0.0000000 )
                  (  0.0000000  0.0000000 -1.0000000 )


      isym = 27     inv. 180 deg rotation - cart. axis [0,1,0]   

 cryst.   s(27) = (     1          0          0      )
                  (     0         -1          0      )
                  (     0          0          1      )

 cart.    s(27) = (  1.0000000  0.0000000  0.0000000 )
                  (  0.0000000 -1.0000000  0.0000000 )
                  (  0.0000000  0.0000000  1.0000000 )


      isym = 28     inv. 180 deg rotation - cart. axis [1,0,0]   

 cryst.   s(28) = (    -1          0          0      )
                  (     0          1          0      )
                  (     0          0          1      )

 cart.    s(28) = ( -1.0000000  0.0000000  0.0000000 )
                  (  0.0000000  1.0000000  0.0000000 )
                  (  0.0000000  0.0000000  1.0000000 )


      isym = 29     inv. 180 deg rotation - cart. axis [1,1,0]   

 cryst.   s(29) = (     0         -1          0      )
                  (    -1          0          0      )
                  (     0          0          1      )

 cart.    s(29) = (  0.0000000 -1.0000000  0.0000000 )
                  ( -1.0000000  0.0000000  0.0000000 )
                  (  0.0000000  0.0000000  1.0000000 )


      isym = 30     inv. 180 deg rotation - cart. axis [1,-1,0]  

 cryst.   s(30) = (     0          1          0      )
                  (     1          0          0      )
                  (     0          0          1      )

 cart.    s(30) = (  0.0000000  1.0000000  0.0000000 )
                  (  1.0000000  0.0000000  0.0000000 )
                  (  0.0000000  0.0000000  1.0000000 )


      isym = 31     inv.  90 deg rotation - cart. axis [0,0,-1]  

 cryst.   s(31) = (     0          1          0      )
                  (    -1          0          0      )
                  (     0          0         -1      )

 cart.    s(31) = (  0.0000000 -1.0000000  0.0000000 )
                  (  1.0000000  0.0000000  0.0000000 )
                  (  0.0000000  0.0000000 -1.0000000 )


      isym = 32     inv.  90 deg rotation - cart. axis [0,0,1]   

 cryst.   s(32) = (     0         -1          0      )
                  (     1          0          0      )
                  (     0          0         -1      )

 cart.    s(32) = (  0.0000000  1.0000000  0.0000000 )
                  ( -1.0000000  0.0000000  0.0000000 )
                  (  0.0000000  0.0000000 -1.0000000 )


      isym = 33     inv. 180 deg rotation - cart. axis [1,0,1]   

 cryst.   s(33) = (     0          0         -1      )
                  (     0          1          0      )
                  (    -1          0          0      )

 cart.    s(33) = (  0.0000000  0.0000000 -1.0000000 )
                  (  0.0000000  1.0000000  0.0000000 )
                  ( -1.0000000  0.0000000  0.0000000 )


      isym = 34     inv. 180 deg rotation - cart. axis [-1,0,1]  

 cryst.   s(34) = (     0          0          1      )
                  (     0          1          0      )
                  (     1          0          0      )

 cart.    s(34) = (  0.0000000  0.0000000  1.0000000 )
                  (  0.0000000  1.0000000  0.0000000 )
                  (  1.0000000  0.0000000  0.0000000 )


      isym = 35     inv.  90 deg rotation - cart. axis [0,1,0]   

 cryst.   s(35) = (     0          0          1      )
                  (     0         -1          0      )
                  (    -1          0          0      )

 cart.    s(35) = (  0.0000000  0.0000000 -1.0000000 )
                  (  0.0000000 -1.0000000  0.0000000 )
                  (  1.0000000  0.0000000  0.0000000 )


      isym = 36     inv.  90 deg rotation - cart. axis [0,-1,0]  

 cryst.   s(36) = (     0          0         -1      )
                  (     0         -1          0      )
                  (     1          0          0      )

 cart.    s(36) = (  0.0000000  0.0000000  1.0000000 )
                  (  0.0000000 -1.0000000  0.0000000 )
                  ( -1.0000000  0.0000000  0.0000000 )


      isym = 37     inv. 180 deg rotation - cart. axis [0,1,1]   

 cryst.   s(37) = (     1          0          0      )
                  (     0          0         -1      )
                  (     0         -1          0      )

 cart.    s(37) = (  1.0000000  0.0000000  0.0000000 )
                  (  0.0000000  0.0000000 -1.0000000 )
                  (  0.0000000 -1.0000000  0.0000000 )


      isym = 38     inv. 180 deg rotation - cart. axis [0,1,-1]  

 cryst.   s(38) = (     1          0          0      )
                  (     0          0          1      )
                  (     0          1          0      )

 cart.    s(38) = (  1.0000000  0.0000000  0.0000000 )
                  (  0.0000000  0.0000000  1.0000000 )
                  (  0.0000000  1.0000000  0.0000000 )


      isym = 39     inv.  90 deg rotation - cart. axis [-1,0,0]  

 cryst.   s(39) = (    -1          0          0      )
                  (     0          0          1      )
                  (     0         -1          0      )

 cart.    s(39) = ( -1.0000000  0.0000000  0.0000000 )
                  (  0.0000000  0.0000000 -1.0000000 )
                  (  0.0000000  1.0000000  0.0000000 )


      isym = 40     inv.  90 deg rotation - cart. axis [1,0,0]   

 cryst.   s(40) = (    -1          0          0      )
                  (     0          0         -1      )
                  (     0          1          0      )

 cart.    s(40) = ( -1.0000000  0.0000000  0.0000000 )
                  (  0.0000000  0.0000000  1.0000000 )
                  (  0.0000000 -1.0000000  0.0000000 )


      isym = 41     inv. 120 deg rotation - cart. axis [-1,-1,-1]

 cryst.   s(41) = (     0          0         -1      )
                  (    -1          0          0      )
                  (     0         -1          0      )

 cart.    s(41) = (  0.0000000 -1.0000000  0.0000000 )
                  (  0.0000000  0.0000000 -1.0000000 )
                  ( -1.0000000  0.0000000  0.0000000 )


      isym = 42     inv. 120 deg rotation - cart. axis [-1,1,1]  

 cryst.   s(42) = (     0          0          1      )
                  (     1          0          0      )
                  (     0         -1          0      )

 cart.    s(42) = (  0.0000000  1.0000000  0.0000000 )
                  (  0.0000000  0.0000000 -1.0000000 )
                  (  1.0000000  0.0000000  0.0000000 )


      isym = 43     inv. 120 deg rotation - cart. axis [1,1,-1]  

 cryst.   s(43) = (     0          0          1      )
                  (    -1          0          0      )
                  (     0          1          0      )

 cart.    s(43) = (  0.0000000 -1.0000000  0.0000000 )
                  (  0.0000000  0.0000000  1.0000000 )
                  (  1.0000000  0.0000000  0.0000000 )


      isym = 44     inv. 120 deg rotation - cart. axis [1,-1,1]  

 cryst.   s(44) = (     0          0         -1      )
                  (     1          0          0      )
                  (     0          1          0      )

 cart.    s(44) = (  0.0000000  1.0000000  0.0000000 )
                  (  0.0000000  0.0000000  1.0000000 )
                  ( -1.0000000  0.0000000  0.0000000 )


      isym = 45     inv. 120 deg rotation - cart. axis [1,1,1]   

 cryst.   s(45) = (     0         -1          0      )
                  (     0          0         -1      )
                  (    -1          0          0      )

 cart.    s(45) = (  0.0000000  0.0000000 -1.0000000 )
                  ( -1.0000000  0.0000000  0.0000000 )
                  (  0.0000000 -1.0000000  0.0000000 )


      isym = 46     inv. 120 deg rotation - cart. axis [-1,1,-1] 

 cryst.   s(46) = (     0          1          0      )
                  (     0          0          1      )
                  (    -1          0          0      )

 cart.    s(46) = (  0.0000000  0.0000000 -1.0000000 )
                  (  1.0000000  0.0000000  0.0000000 )
                  (  0.0000000  1.0000000  0.0000000 )


      isym = 47     inv. 120 deg rotation - cart. axis [1,-1,-1] 

 cryst.   s(47) = (     0          1          0      )
                  (     0          0         -1      )
                  (     1          0          0      )

 cart.    s(47) = (  0.0000000  0.0000000  1.0000000 )
                  (  1.0000000  0.0000000  0.0000000 )
                  (  0.0000000 -1.0000000  0.0000000 )


      isym = 48     inv. 120 deg rotation - cart. axis [-1,-1,1] 

 cryst.   s(48) = (     0         -1          0      )
                  (     0          0          1      )
                  (     1          0          0      )

 cart.    s(48) = (  0.0000000  0.0000000  1.0000000 )
                  ( -1.0000000  0.0000000  0.0000000 )
                  (  0.0000000  1.0000000  0.0000000 )


     point group O_h (m-3m) 
     there are 10 classes
     the character table:

       E     8C3   3C2   6C4   6C2'  i     8S6   3s_h  6S4   6s_d 
A_1g   1.00  1.00  1.00  1.00  1.00  1.00  1.00  1.00  1.00  1.00
A_2g   1.00  1.00  1.00 -1.00 -1.00  1.00  1.00  1.00 -1.00 -1.00
E_g    2.00 -1.00  2.00  0.00  0.00  2.00 -1.00  2.00  0.00  0.00
T_1g   3.00  0.00 -1.00  1.00 -1.00  3.00  0.00 -1.00  1.00 -1.00
T_2g   3.00  0.00 -1.00 -1.00  1.00  3.00  0.00 -1.00 -1.00  1.00
A_1u   1.00  1.00  1.00  1.00  1.00 -1.00 -1.00 -1.00 -1.00 -1.00
A_2u   1.00  1.00  1.00 -1.00 -1.00 -1.00 -1.00 -1.00  1.00  1.00
E_u    2.00 -1.00  2.00  0.00  0.00 -2.00  1.00 -2.00  0.00  0.00
T_1u   3.00  0.00 -1.00  1.00 -1.00 -3.00  0.00  1.00 -1.00  1.00
T_2u   3.00  0.00 -1.00 -1.00  1.00 -3.00  0.00  1.00  1.00 -1.00

     the symmetry operations in each class and the name of the first element:

     E        1
          identity                                               
     8C3     17   19   20   18   24   21   22   23
          120 deg rotation - cart. axis [-1,-1,-1]               
     3C2      2    4    3
          180 deg rotation - cart. axis [0,0,1]                  
     6C4      7    8   15   16   12   11
           90 deg rotation - cart. axis [0,0,-1]                 
     6C2'     5    6   14   13   10    9
          180 deg rotation - cart. axis [1,1,0]                  
     i       25
          inversion                                              
     8S6     41   43   44   42   48   45   46   47
          inv. 120 deg rotation - cart. axis [-1,-1,-1]          
     3s_h    26   28   27
          inv. 180 deg rotation - cart. axis [0,0,1]             
     6S4     31   32   39   40   36   35
          inv.  90 deg rotation - cart. axis [0,0,-1]            
     6s_d    29   30   38   37   34   33
          inv. 180 deg rotation - cart. axis [1,1,0]             

   Cartesian axes

     site n.     atom                  positions (alat units)
         1           Fe  tau(   1) = (   0.0000000   0.0000000   0.0000000  )
         2           Mg  tau(   2) = (   0.0000000   0.5000000   0.5000000  )
         3           Mg  tau(   3) = (   0.5000000   0.0000000   0.5000000  )
         4           Mg  tau(   4) = (   0.5000000   0.5000000   0.0000000  )
         5           O   tau(   5) = (   0.5000000   0.5000000   0.5000000  )
         6           O   tau(   6) = (   0.5000000   0.0000000   0.0000000  )
         7           O   tau(   7) = (   0.0000000   0.5000000   0.0000000  )
         8           O   tau(   8) = (   0.0000000   0.0000000   0.5000000  )

   Crystallographic axes

     site n.     atom                  positions (cryst. coord.)
         1           Fe  tau(   1) = (  0.0000000  0.0000000  0.0000000  )
         2           Mg  tau(   2) = (  0.0000000  0.5000000  0.5000000  )
         3           Mg  tau(   3) = (  0.5000000  0.0000000  0.5000000  )
         4           Mg  tau(   4) = (  0.5000000  0.5000000  0.0000000  )
         5           O   tau(   5) = (  0.5000000  0.5000000  0.5000000  )
         6           O   tau(   6) = (  0.5000000  0.0000000  0.0000000  )
         7           O   tau(   7) = (  0.0000000  0.5000000  0.0000000  )
         8           O   tau(   8) = (  0.0000000  0.0000000  0.5000000  )

     number of k points=     4  Fermi-Dirac smearing, width (Ry)=  0.0019
                       cart. coord. in units 2pi/alat
        k(    1) = (   0.0000000   0.0000000   0.0000000), wk =   0.1250000
        k(    2) = (   0.0000000   0.0000000  -0.5000000), wk =   0.3750000
        k(    3) = (   0.0000000  -0.5000000  -0.5000000), wk =   0.3750000
        k(    4) = (  -0.5000000  -0.5000000  -0.5000000), wk =   0.1250000

                       cryst. coord.
        k(    1) = (   0.0000000   0.0000000   0.0000000), wk =   0.1250000
        k(    2) = (   0.0000000   0.0000000  -0.5000000), wk =   0.3750000
        k(    3) = (   0.0000000  -0.5000000  -0.5000000), wk =   0.3750000
        k(    4) = (  -0.5000000  -0.5000000  -0.5000000), wk =   0.1250000

     Dense  grid:  1540499 G-vectors     FFT dimensions: ( 144, 144, 144)

     Dynamical RAM for                 wfc:       1.96 MB

     Dynamical RAM for     wfc (w. buffer):      17.63 MB

     Dynamical RAM for             U proj.:       0.31 MB

     Dynamical RAM for  U proj. (w. buff.):       2.75 MB

     Dynamical RAM for           str. fact:       1.47 MB

     Dynamical RAM for           local pot:       0.00 MB

     Dynamical RAM for          nlocal pot:       1.84 MB

     Dynamical RAM for                qrad:       1.94 MB

     Dynamical RAM for          rho,v,vnew:       5.79 MB

     Dynamical RAM for               rhoin:       1.93 MB

     Dynamical RAM for            rho*nmix:      15.67 MB

     Dynamical RAM for           G-vectors:       2.08 MB

     Dynamical RAM for          h,s,v(r/c):       0.00 MB

     Dynamical RAM for          <psi|beta>:       0.01 MB

     Dynamical RAM for                 psi:       3.92 MB

     Dynamical RAM for                hpsi:       3.92 MB

     Dynamical RAM for      wfcinit/wfcrot:       6.43 MB

     Estimated static dynamical RAM per process >      55.90 MB

     Estimated max dynamical RAM per process >      63.76 MB

     Estimated total dynamical RAM >       2.99 GB
     Generating pointlists ...
     new r_m :   0.2063 (alat units)  1.6413 (a.u.) for type    1
     new r_m :   0.2063 (alat units)  1.6413 (a.u.) for type    2
     new r_m :   0.2063 (alat units)  1.6413 (a.u.) for type    3

     Initial potential from superposition of free atoms

     starting charge   39.00170, renormalised to   46.00000

     negative rho (up, down):  5.519E-07 5.519E-07
 --- in v_hubbard ---
Hubbard energy    0.4410
 -------
     Number of +U iterations with fixed ns =100
     Starting occupations:
 --- enter write_ns ---
 LDA+U parameters:
U( 1)     =  5.00000000
atom    1   Tr[ns(na)] (up, down, total) =   3.00000  3.00000  6.00000
   spin  1
    eigenvalues: 
  0.600  0.600  0.600  0.600  0.600
    eigenvectors:
  1.000  0.000  0.000  0.000  0.000
  0.000  1.000  0.000  0.000  0.000
  0.000  0.000  1.000  0.000  0.000
  0.000  0.000  0.000  1.000  0.000
  0.000  0.000  0.000  0.000  1.000
    occupations:
  0.600  0.000  0.000  0.000  0.000
  0.000  0.600  0.000  0.000  0.000
  0.000  0.000  0.600  0.000  0.000
  0.000  0.000  0.000  0.600  0.000
  0.000  0.000  0.000  0.000  0.600
   spin  2
    eigenvalues: 
  0.600  0.600  0.600  0.600  0.600
    eigenvectors:
  1.000  0.000  0.000  0.000  0.000
  0.000  1.000  0.000  0.000  0.000
  0.000  0.000  1.000  0.000  0.000
  0.000  0.000  0.000  1.000  0.000
  0.000  0.000  0.000  0.000  1.000
    occupations:
  0.600  0.000  0.000  0.000  0.000
  0.000  0.600  0.000  0.000  0.000
  0.000  0.000  0.600  0.000  0.000
  0.000  0.000  0.000  0.600  0.000
  0.000  0.000  0.000  0.000  0.600
atomic mag. moment =   0.00000
N of occupied +U levels =    6.000000
 --- exit write_ns ---
 Atomic wfc used for LDA+U Projector are NOT orthogonalized
     Starting wfcs are   52 randomized atomic wfcs

     total cpu time spent up to now is        5.1 secs

     Self-consistent Calculation

     iteration #  1     ecut=   800.00 Ry     beta= 0.30
     Davidson diagonalization with overlap
     ethr =  1.00E-02,  avg # of iterations = 10.2
 --- enter write_ns ---
 LDA+U parameters:
U( 1)     =  5.00000000
atom    1   Tr[ns(na)] (up, down, total) =   0.17832  0.17800  0.35632
   spin  1
    eigenvalues: 
  0.024  0.024  0.024  0.053  0.053
    eigenvectors:
  0.000  0.000  0.000  0.001  0.999
  0.127  0.014  0.859  0.000  0.000
  0.369  0.525  0.106  0.000  0.000
  0.000  0.000  0.000  0.999  0.001
  0.504  0.461  0.035  0.000  0.000
    occupations:
  0.053 -0.000 -0.000  0.000  0.000
 -0.000  0.024 -0.000  0.000  0.000
 -0.000 -0.000  0.024  0.000  0.000
  0.000  0.000  0.000  0.053 -0.000
  0.000  0.000  0.000 -0.000  0.024
   spin  2
    eigenvalues: 
  0.024  0.024  0.024  0.053  0.053
    eigenvectors:
  0.000  0.000  0.000  0.000  1.000
  0.121  0.017  0.862  0.000  0.000
  0.315  0.584  0.101  0.000  0.000
  0.000  0.000  0.000  1.000  0.000
  0.564  0.399  0.037  0.000  0.000
    occupations:
  0.053 -0.000 -0.000  0.000  0.000
 -0.000  0.024 -0.000  0.000  0.000
 -0.000 -0.000  0.024  0.000  0.000
  0.000  0.000  0.000  0.053 -0.000
  0.000  0.000  0.000 -0.000  0.024
atomic mag. moment =   0.00033
N of occupied +U levels =    0.356320
 --- exit write_ns ---
 Modify starting ns matrices according to input values 
 --- enter write_ns ---
 LDA+U parameters:
U( 1)     =  5.00000000
atom    1   Tr[ns(na)] (up, down, total) =   3.00000  3.00000  6.00000
   spin  1
    eigenvalues: 
 -0.000  0.000  1.000  1.000  1.000
    eigenvectors:
  0.835  0.165  0.000  0.000  0.000
  0.000  0.000  0.028  0.972  0.000
  0.000  0.000  0.972  0.028  0.000
  0.165  0.835  0.000  0.000  0.000
  0.000  0.000  0.000  0.000  1.000
    occupations:
  0.000  0.000  0.000 -0.000 -0.000
  0.000  1.000 -0.000 -0.000 -0.000
  0.000 -0.000  1.000 -0.000  0.000
 -0.000 -0.000 -0.000  0.000  0.000
 -0.000 -0.000  0.000  0.000  1.000
   spin  2
    eigenvalues: 
 -0.000 -0.000  1.000  1.000  1.000
    eigenvectors:
  0.165  0.835  0.000  0.000  0.000
  0.000  0.000  0.000  0.916  0.084
  0.000  0.000  0.000  0.084  0.916
  0.835  0.165  0.000  0.000  0.000
  0.000  0.000  1.000  0.000  0.000
    occupations:
  0.000  0.000  0.000 -0.000 -0.000
  0.000  1.000  0.000 -0.000  0.000
  0.000  0.000  1.000 -0.000  0.000
 -0.000 -0.000 -0.000  0.000  0.000
 -0.000  0.000  0.000  0.000  1.000
atomic mag. moment =   0.00000
N of occupied +U levels =    6.000000
 --- exit write_ns ---

     RESET ns to initial values (iter <= mixing_fixed_ns)


     negative rho (up, down):  2.864E-07 2.856E-07
 --- in v_hubbard ---
Hubbard energy   -0.0000
 -------

     total cpu time spent up to now is        9.8 secs

     total energy              =    -373.00733979 Ry
     estimated scf accuracy    <      54.47928496 Ry

     total magnetization       =     0.00 Bohr mag/cell
     absolute magnetization    =     0.01 Bohr mag/cell

     iteration #  2     ecut=   800.00 Ry     beta= 0.30
     Davidson diagonalization with overlap
     ethr =  1.00E-02,  avg # of iterations =  9.0
 --- enter write_ns ---
 LDA+U parameters:
U( 1)     =  5.00000000
atom    1   Tr[ns(na)] (up, down, total) =   4.08042  4.08088  8.16129
   spin  1
    eigenvalues: 
  0.542  0.542  0.999  0.999  0.999
    eigenvectors:
  0.001  0.999  0.000  0.000  0.000
  0.000  0.000  0.126  0.002  0.873
  0.000  0.000  0.369  0.561  0.070
  0.999  0.001  0.000  0.000  0.000
  0.000  0.000  0.505  0.437  0.057
    occupations:
  0.542 -0.000 -0.000  0.000  0.000
 -0.000  0.999 -0.000  0.000  0.000
 -0.000 -0.000  0.999  0.000  0.000
  0.000  0.000  0.000  0.542 -0.000
  0.000  0.000  0.000 -0.000  0.999
   spin  2
    eigenvalues: 
  0.543  0.543  0.998  0.998  0.998
    eigenvectors:
  0.064  0.936  0.000  0.000  0.000
  0.000  0.000  0.116  0.000  0.884
  0.000  0.000  0.410  0.532  0.057
  0.936  0.064  0.000  0.000  0.000
  0.000  0.000  0.474  0.467  0.058
    occupations:
  0.543 -0.000 -0.000  0.000  0.000
 -0.000  0.998 -0.000  0.000  0.000
 -0.000 -0.000  0.998  0.000  0.000
  0.000  0.000  0.000  0.543 -0.000
  0.000  0.000  0.000 -0.000  0.998
atomic mag. moment =  -0.00046
N of occupied +U levels =    8.161293
 --- exit write_ns ---

     RESET ns to initial values (iter <= mixing_fixed_ns)


     negative rho (up, down):  1.720E-07 1.721E-07
 --- in v_hubbard ---
Hubbard energy   -0.0000
 -------

     total cpu time spent up to now is       14.5 secs

     total energy              =    -379.75074638 Ry
     estimated scf accuracy    <       7.98705188 Ry

     total magnetization       =    -0.00 Bohr mag/cell
     absolute magnetization    =     0.02 Bohr mag/cell

     iteration #  3     ecut=   800.00 Ry     beta= 0.30
     Davidson diagonalization with overlap
     ethr =  1.00E-02,  avg # of iterations =  2.0
 --- enter write_ns ---
 LDA+U parameters:
U( 1)     =  5.00000000
atom    1   Tr[ns(na)] (up, down, total) =   3.16313  3.16485  6.32798
   spin  1
    eigenvalues: 
  0.125  0.125  0.971  0.971  0.971
    eigenvectors:
  0.174  0.826  0.000  0.000  0.000
  0.000  0.000  0.108  0.000  0.892
  0.000  0.000  0.388  0.563  0.049
  0.826  0.174  0.000  0.000  0.000
  0.000  0.000  0.504  0.437  0.059
    occupations:
  0.125 -0.000 -0.000  0.000  0.000
 -0.000  0.971 -0.000  0.000  0.000
 -0.000 -0.000  0.971  0.000  0.000
  0.000  0.000  0.000  0.125 -0.000
  0.000  0.000  0.000 -0.000  0.971
   spin  2
    eigenvalues: 
  0.126  0.126  0.971  0.971  0.971
    eigenvectors:
  0.113  0.887  0.000  0.000  0.000
  0.000  0.000  0.106  0.001  0.893
  0.000  0.000  0.352  0.596  0.052
  0.887  0.113  0.000  0.000  0.000
  0.000  0.000  0.542  0.403  0.054
    occupations:
  0.126 -0.000 -0.000  0.000  0.000
 -0.000  0.971 -0.000  0.000  0.000
 -0.000 -0.000  0.971  0.000  0.000
  0.000  0.000  0.000  0.126 -0.000
  0.000  0.000  0.000 -0.000  0.971
atomic mag. moment =  -0.00172
N of occupied +U levels =    6.327976
 --- exit write_ns ---

     RESET ns to initial values (iter <= mixing_fixed_ns)


     negative rho (up, down):  7.973E-08 7.969E-08
 --- in v_hubbard ---
Hubbard energy   -0.0000
 -------

     total cpu time spent up to now is       16.9 secs

     total energy              =    -381.85235709 Ry
     estimated scf accuracy    <       0.90275380 Ry

     total magnetization       =    -0.00 Bohr mag/cell
     absolute magnetization    =     0.02 Bohr mag/cell

     iteration #  4     ecut=   800.00 Ry     beta= 0.30
     Davidson diagonalization with overlap
     ethr =  1.96E-03,  avg # of iterations =  1.9
 --- enter write_ns ---
 LDA+U parameters:
U( 1)     =  5.00000000
atom    1   Tr[ns(na)] (up, down, total) =   3.22457  3.22809  6.45266
   spin  1
    eigenvalues: 
  0.139  0.139  0.982  0.982  0.982
    eigenvectors:
  0.008  0.992  0.000  0.000  0.000
  0.000  0.000  0.132  0.010  0.858
  0.000  0.000  0.390  0.506  0.104
  0.992  0.008  0.000  0.000  0.000
  0.000  0.000  0.478  0.484  0.038
    occupations:
  0.139 -0.000 -0.000  0.000  0.000
 -0.000  0.982 -0.000  0.000  0.000
 -0.000 -0.000  0.982  0.000  0.000
  0.000  0.000  0.000  0.139 -0.000
  0.000  0.000  0.000 -0.000  0.982
   spin  2
    eigenvalues: 
  0.140  0.140  0.983  0.983  0.983
    eigenvectors:
  0.635  0.365  0.000  0.000  0.000
  0.000  0.000  0.114  0.000  0.886
  0.000  0.000  0.349  0.612  0.039
  0.365  0.635  0.000  0.000  0.000
  0.000  0.000  0.537  0.387  0.076
    occupations:
  0.140 -0.000 -0.000 -0.000  0.000
 -0.000  0.983 -0.000  0.000  0.000
 -0.000 -0.000  0.983  0.000  0.000
 -0.000  0.000  0.000  0.140 -0.000
  0.000  0.000  0.000 -0.000  0.983
atomic mag. moment =  -0.00352
N of occupied +U levels =    6.452656
 --- exit write_ns ---

     RESET ns to initial values (iter <= mixing_fixed_ns)

 --- in v_hubbard ---
Hubbard energy   -0.0000
 -------

     total cpu time spent up to now is       19.2 secs

     total energy              =    -381.81398002 Ry
     estimated scf accuracy    <       0.30974495 Ry

     total magnetization       =     0.00 Bohr mag/cell
     absolute magnetization    =     0.02 Bohr mag/cell

     iteration #  5     ecut=   800.00 Ry     beta= 0.30
     Davidson diagonalization with overlap
     ethr =  6.73E-04,  avg # of iterations =  3.6
 --- enter write_ns ---
 LDA+U parameters:
U( 1)     =  5.00000000
atom    1   Tr[ns(na)] (up, down, total) =   3.33009  3.32867  6.65876
   spin  1
    eigenvalues: 
  0.175  0.175  0.993  0.993  0.993
    eigenvectors:
  0.010  0.990  0.000  0.000  0.000
  0.000  0.000  0.114  0.001  0.886
  0.000  0.000  0.349  0.598  0.053
  0.990  0.010  0.000  0.000  0.000
  0.000  0.000  0.538  0.401  0.061
    occupations:
  0.175 -0.000 -0.000  0.000  0.000
 -0.000  0.993 -0.000  0.000  0.000
 -0.000 -0.000  0.993  0.000  0.000
  0.000  0.000  0.000  0.175 -0.000
  0.000  0.000  0.000 -0.000  0.993
   spin  2
    eigenvalues: 
  0.174  0.174  0.993  0.993  0.993
    eigenvectors:
  0.058  0.942  0.000  0.000  0.000
  0.000  0.000  0.107  0.001  0.892
  0.000  0.000  0.387  0.579  0.035
  0.942  0.058  0.000  0.000  0.000
  0.000  0.000  0.506  0.420  0.074
    occupations:
  0.174 -0.000 -0.000  0.000  0.000
 -0.000  0.993 -0.000  0.000  0.000
 -0.000 -0.000  0.993  0.000  0.000
  0.000  0.000  0.000  0.174 -0.000
  0.000  0.000  0.000 -0.000  0.993
atomic mag. moment =   0.00142
N of occupied +U levels =    6.658759
 --- exit write_ns ---

     RESET ns to initial values (iter <= mixing_fixed_ns)

 --- in v_hubbard ---
Hubbard energy   -0.0000
 -------

     total cpu time spent up to now is       22.0 secs

     total energy              =    -381.88565396 Ry
     estimated scf accuracy    <       0.04485708 Ry

     total magnetization       =    -0.00 Bohr mag/cell
     absolute magnetization    =     0.00 Bohr mag/cell

     iteration #  6     ecut=   800.00 Ry     beta= 0.30
     Davidson diagonalization with overlap
     ethr =  9.75E-05,  avg # of iterations =  3.8
 --- enter write_ns ---
 LDA+U parameters:
U( 1)     =  5.00000000
atom    1   Tr[ns(na)] (up, down, total) =   3.30320  3.30255  6.60575
   spin  1
    eigenvalues: 
  0.163  0.163  0.992  0.992  0.992
    eigenvectors:
  0.044  0.956  0.000  0.000  0.000
  0.000  0.000  0.124  0.007  0.869
  0.000  0.000  0.369  0.544  0.087
  0.956  0.044  0.000  0.000  0.000
  0.000  0.000  0.507  0.449  0.044
    occupations:
  0.163 -0.000 -0.000  0.000  0.000
 -0.000  0.992 -0.000  0.000  0.000
 -0.000 -0.000  0.992  0.000  0.000
  0.000  0.000  0.000  0.163 -0.000
  0.000  0.000  0.000 -0.000  0.992
   spin  2
    eigenvalues: 
  0.163  0.163  0.992  0.992  0.992
    eigenvectors:
  0.000  1.000  0.000  0.000  0.000
  0.000  0.000  0.110  0.012  0.878
  0.000  0.000  0.350  0.563  0.087
  1.000  0.000  0.000  0.000  0.000
  0.000  0.000  0.540  0.425  0.034
    occupations:
  0.163 -0.000 -0.000  0.000  0.000
 -0.000  0.992 -0.000  0.000  0.000
 -0.000 -0.000  0.992  0.000  0.000
  0.000  0.000  0.000  0.163 -0.000
  0.000  0.000  0.000 -0.000  0.992
atomic mag. moment =   0.00065
N of occupied +U levels =    6.605751
 --- exit write_ns ---

     RESET ns to initial values (iter <= mixing_fixed_ns)

 --- in v_hubbard ---
Hubbard energy   -0.0000
 -------

     total cpu time spent up to now is       24.5 secs

     total energy              =    -381.88803806 Ry
     estimated scf accuracy    <       0.01065379 Ry

     total magnetization       =    -0.00 Bohr mag/cell
     absolute magnetization    =     0.00 Bohr mag/cell

     iteration #  7     ecut=   800.00 Ry     beta= 0.30
     Davidson diagonalization with overlap
     ethr =  2.32E-05,  avg # of iterations =  3.2
 --- enter write_ns ---
 LDA+U parameters:
U( 1)     =  5.00000000
atom    1   Tr[ns(na)] (up, down, total) =   3.28055  3.27977  6.56032
   spin  1
    eigenvalues: 
  0.154  0.154  0.991  0.991  0.991
    eigenvectors:
  0.077  0.923  0.000  0.000  0.000
  0.000  0.000  0.099  0.004  0.897
  0.000  0.000  0.362  0.576  0.062
  0.923  0.077  0.000  0.000  0.000
  0.000  0.000  0.539  0.420  0.041
    occupations:
  0.154 -0.000 -0.000  0.000  0.000
 -0.000  0.991 -0.000  0.000  0.000
 -0.000 -0.000  0.991  0.000  0.000
  0.000  0.000  0.000  0.154 -0.000
  0.000  0.000  0.000 -0.000  0.991
   spin  2
    eigenvalues: 
  0.154  0.154  0.991  0.991  0.991
    eigenvectors:
  0.002  0.998  0.000  0.000  0.000
  0.000  0.000  0.117  0.000  0.883
  0.000  0.000  0.381  0.574  0.045
  0.998  0.002  0.000  0.000  0.000
  0.000  0.000  0.502  0.426  0.072
    occupations:
  0.154 -0.000 -0.000  0.000  0.000
 -0.000  0.991 -0.000  0.000  0.000
 -0.000 -0.000  0.991  0.000  0.000
  0.000  0.000  0.000  0.154 -0.000
  0.000  0.000  0.000 -0.000  0.991
atomic mag. moment =   0.00078
N of occupied +U levels =    6.560324
 --- exit write_ns ---

     RESET ns to initial values (iter <= mixing_fixed_ns)

 --- in v_hubbard ---
Hubbard energy   -0.0000
 -------

     total cpu time spent up to now is       27.4 secs

     total energy              =    -381.89006255 Ry
     estimated scf accuracy    <       0.00486965 Ry

     total magnetization       =     0.00 Bohr mag/cell
     absolute magnetization    =     0.00 Bohr mag/cell

     iteration #  8     ecut=   800.00 Ry     beta= 0.30
     Davidson diagonalization with overlap
     ethr =  1.06E-05,  avg # of iterations =  3.1
 --- enter write_ns ---
 LDA+U parameters:
U( 1)     =  5.00000000
atom    1   Tr[ns(na)] (up, down, total) =   3.29293  3.29304  6.58597
   spin  1
    eigenvalues: 
  0.159  0.159  0.991  0.991  0.991
    eigenvectors:
  0.432  0.568  0.000  0.000  0.000
  0.000  0.000  0.099  0.000  0.901
  0.000  0.000  0.375  0.580  0.045
  0.568  0.432  0.000  0.000  0.000
  0.000  0.000  0.526  0.420  0.054
    occupations:
  0.159 -0.000 -0.000  0.000  0.000
 -0.000  0.991 -0.000  0.000  0.000
 -0.000 -0.000  0.991  0.000  0.000
  0.000  0.000  0.000  0.159 -0.000
  0.000  0.000  0.000 -0.000  0.991
   spin  2
    eigenvalues: 
  0.159  0.159  0.991  0.991  0.991
    eigenvectors:
  0.232  0.768  0.000  0.000  0.000
  0.000  0.000  0.112  0.017  0.870
  0.000  0.000  0.335  0.566  0.099
  0.768  0.232  0.000  0.000  0.000
  0.000  0.000  0.552  0.417  0.031
    occupations:
  0.159 -0.000 -0.000  0.000  0.000
 -0.000  0.991 -0.000  0.000  0.000
 -0.000 -0.000  0.991  0.000  0.000
  0.000  0.000  0.000  0.159 -0.000
  0.000  0.000  0.000 -0.000  0.991
atomic mag. moment =  -0.00011
N of occupied +U levels =    6.585966
 --- exit write_ns ---

     RESET ns to initial values (iter <= mixing_fixed_ns)

 --- in v_hubbard ---
Hubbard energy   -0.0000
 -------

     total cpu time spent up to now is       29.9 secs

     total energy              =    -381.89070705 Ry
     estimated scf accuracy    <       0.00011820 Ry

     total magnetization       =    -0.00 Bohr mag/cell
     absolute magnetization    =     0.00 Bohr mag/cell

     iteration #  9     ecut=   800.00 Ry     beta= 0.30
     Davidson diagonalization with overlap
     ethr =  2.57E-07,  avg # of iterations =  4.6
 --- enter write_ns ---
 LDA+U parameters:
U( 1)     =  5.00000000
atom    1   Tr[ns(na)] (up, down, total) =   3.29557  3.29558  6.59114
   spin  1
    eigenvalues: 
  0.160  0.160  0.992  0.992  0.992
    eigenvectors:
  0.148  0.852  0.000  0.000  0.000
  0.000  0.000  0.107  0.005  0.889
  0.000  0.000  0.394  0.532  0.073
  0.852  0.148  0.000  0.000  0.000
  0.000  0.000  0.499  0.463  0.038
    occupations:
  0.160 -0.000 -0.000  0.000  0.000
 -0.000  0.992 -0.000  0.000  0.000
 -0.000 -0.000  0.992  0.000  0.000
  0.000  0.000  0.000  0.160 -0.000
  0.000  0.000  0.000 -0.000  0.992
   spin  2
    eigenvalues: 
  0.160  0.160  0.992  0.992  0.992
    eigenvectors:
  0.023  0.977  0.000  0.000  0.000
  0.000  0.000  0.107  0.003  0.890
  0.000  0.000  0.366  0.568  0.066
  0.977  0.023  0.000  0.000  0.000
  0.000  0.000  0.527  0.429  0.044
    occupations:
  0.160 -0.000 -0.000  0.000  0.000
 -0.000  0.992 -0.000  0.000  0.000
 -0.000 -0.000  0.992  0.000  0.000
  0.000  0.000  0.000  0.160 -0.000
  0.000  0.000  0.000 -0.000  0.992
atomic mag. moment =  -0.00001
N of occupied +U levels =    6.591144
 --- exit write_ns ---

     RESET ns to initial values (iter <= mixing_fixed_ns)

 --- in v_hubbard ---
Hubbard energy   -0.0000
 -------

     total cpu time spent up to now is       33.0 secs

     total energy              =    -381.89077249 Ry
     estimated scf accuracy    <       0.00003570 Ry

     total magnetization       =    -0.00 Bohr mag/cell
     absolute magnetization    =     0.00 Bohr mag/cell

     iteration # 10     ecut=   800.00 Ry     beta= 0.30
     Davidson diagonalization with overlap
     ethr =  7.76E-08,  avg # of iterations =  1.0
 --- enter write_ns ---
 LDA+U parameters:
U( 1)     =  5.00000000
atom    1   Tr[ns(na)] (up, down, total) =   3.29529  3.29530  6.59059
   spin  1
    eigenvalues: 
  0.160  0.160  0.992  0.992  0.992
    eigenvectors:
  0.000  1.000  0.000  0.000  0.000
  0.000  0.000  0.109  0.003  0.888
  0.000  0.000  0.406  0.524  0.070
  1.000  0.000  0.000  0.000  0.000
  0.000  0.000  0.485  0.473  0.042
    occupations:
  0.160 -0.000 -0.000  0.000  0.000
 -0.000  0.992 -0.000  0.000  0.000
 -0.000 -0.000  0.992  0.000  0.000
  0.000  0.000  0.000  0.160 -0.000
  0.000  0.000  0.000 -0.000  0.992
   spin  2
    eigenvalues: 
  0.160  0.160  0.992  0.992  0.992
    eigenvectors:
  0.007  0.993  0.000  0.000  0.000
  0.000  0.000  0.122  0.003  0.875
  0.000  0.000  0.380  0.546  0.074
  0.993  0.007  0.000  0.000  0.000
  0.000  0.000  0.497  0.452  0.051
    occupations:
  0.160 -0.000 -0.000  0.000  0.000
 -0.000  0.992 -0.000  0.000  0.000
 -0.000 -0.000  0.992  0.000  0.000
  0.000  0.000  0.000  0.160 -0.000
  0.000  0.000  0.000 -0.000  0.992
atomic mag. moment =  -0.00001
N of occupied +U levels =    6.590586
 --- exit write_ns ---

     RESET ns to initial values (iter <= mixing_fixed_ns)

 --- in v_hubbard ---
Hubbard energy   -0.0000
 -------

     total cpu time spent up to now is       35.1 secs

     total energy              =    -381.89076662 Ry
     estimated scf accuracy    <       0.00001765 Ry

     total magnetization       =    -0.00 Bohr mag/cell
     absolute magnetization    =     0.00 Bohr mag/cell

     iteration # 11     ecut=   800.00 Ry     beta= 0.30
     Davidson diagonalization with overlap
     ethr =  3.84E-08,  avg # of iterations =  2.0
 --- enter write_ns ---
 LDA+U parameters:
U( 1)     =  5.00000000
atom    1   Tr[ns(na)] (up, down, total) =   3.29461  3.29462  6.58923
   spin  1
    eigenvalues: 
  0.160  0.160  0.992  0.992  0.992
    eigenvectors:
  0.001  0.999  0.000  0.000  0.000
  0.000  0.000  0.112  0.009  0.879
  0.000  0.000  0.386  0.527  0.087
  0.999  0.001  0.000  0.000  0.000
  0.000  0.000  0.502  0.464  0.034
    occupations:
  0.160 -0.000 -0.000  0.000  0.000
 -0.000  0.992 -0.000  0.000  0.000
 -0.000 -0.000  0.992  0.000  0.000
  0.000  0.000  0.000  0.160 -0.000
  0.000  0.000  0.000 -0.000  0.992
   spin  2
    eigenvalues: 
  0.160  0.160  0.992  0.992  0.992
    eigenvectors:
  0.295  0.705  0.000  0.000  0.000
  0.000  0.000  0.115  0.037  0.848
  0.000  0.000  0.324  0.544  0.132
  0.705  0.295  0.000  0.000  0.000
  0.000  0.000  0.561  0.419  0.020
    occupations:
  0.160 -0.000 -0.000  0.000  0.000
 -0.000  0.992 -0.000  0.000  0.000
 -0.000 -0.000  0.992  0.000  0.000
  0.000  0.000  0.000  0.160 -0.000
  0.000  0.000  0.000 -0.000  0.992
atomic mag. moment =  -0.00001
N of occupied +U levels =    6.589228
 --- exit write_ns ---

     RESET ns to initial values (iter <= mixing_fixed_ns)

 --- in v_hubbard ---
Hubbard energy   -0.0000
 -------

     total cpu time spent up to now is       37.5 secs

     total energy              =    -381.89076911 Ry
     estimated scf accuracy    <       0.00000035 Ry

     total magnetization       =     0.00 Bohr mag/cell
     absolute magnetization    =     0.00 Bohr mag/cell

     iteration # 12     ecut=   800.00 Ry     beta= 0.30
     Davidson diagonalization with overlap
     ethr =  7.59E-10,  avg # of iterations =  4.2
 --- enter write_ns ---
 LDA+U parameters:
U( 1)     =  5.00000000
atom    1   Tr[ns(na)] (up, down, total) =   3.29450  3.29451  6.58901
   spin  1
    eigenvalues: 
  0.160  0.160  0.992  0.992  0.992
    eigenvectors:
  0.015  0.985  0.000  0.000  0.000
  0.000  0.000  0.132  0.002  0.867
  0.000  0.000  0.399  0.522  0.079
  0.985  0.015  0.000  0.000  0.000
  0.000  0.000  0.469  0.476  0.055
    occupations:
  0.160 -0.000 -0.000  0.000  0.000
 -0.000  0.992 -0.000  0.000  0.000
 -0.000 -0.000  0.992  0.000  0.000
  0.000  0.000  0.000  0.160 -0.000
  0.000  0.000  0.000 -0.000  0.992
   spin  2
    eigenvalues: 
  0.160  0.160  0.992  0.992  0.992
    eigenvectors:
  0.122  0.878  0.000  0.000  0.000
  0.000  0.000  0.127  0.002  0.872
  0.000  0.000  0.378  0.551  0.071
  0.878  0.122  0.000  0.000  0.000
  0.000  0.000  0.496  0.447  0.057
    occupations:
  0.160 -0.000 -0.000  0.000  0.000
 -0.000  0.992 -0.000  0.000  0.000
 -0.000 -0.000  0.992  0.000  0.000
  0.000  0.000  0.000  0.160 -0.000
  0.000  0.000  0.000 -0.000  0.992
atomic mag. moment =  -0.00000
N of occupied +U levels =    6.589011
 --- exit write_ns ---

     RESET ns to initial values (iter <= mixing_fixed_ns)

 --- in v_hubbard ---
Hubbard energy   -0.0000
 -------

     total cpu time spent up to now is       40.6 secs

     total energy              =    -381.89076926 Ry
     estimated scf accuracy    <       0.00000007 Ry

     total magnetization       =     0.00 Bohr mag/cell
     absolute magnetization    =     0.00 Bohr mag/cell

     iteration # 13     ecut=   800.00 Ry     beta= 0.30
     Davidson diagonalization with overlap
     ethr =  1.48E-10,  avg # of iterations =  2.0
 --- enter write_ns ---
 LDA+U parameters:
U( 1)     =  5.00000000
atom    1   Tr[ns(na)] (up, down, total) =   3.29454  3.29454  6.58907
   spin  1
    eigenvalues: 
  0.160  0.160  0.992  0.992  0.992
    eigenvectors:
  0.301  0.699  0.000  0.000  0.000
  0.000  0.000  0.114  0.015  0.871
  0.000  0.000  0.373  0.527  0.100
  0.699  0.301  0.000  0.000  0.000
  0.000  0.000  0.513  0.458  0.029
    occupations:
  0.160 -0.000 -0.000  0.000  0.000
 -0.000  0.992 -0.000  0.000  0.000
 -0.000 -0.000  0.992  0.000  0.000
  0.000  0.000  0.000  0.160 -0.000
  0.000  0.000  0.000 -0.000  0.992
   spin  2
    eigenvalues: 
  0.160  0.160  0.992  0.992  0.992
    eigenvectors:
  0.356  0.644  0.000  0.000  0.000
  0.000  0.000  0.120  0.009  0.872
  0.000  0.000  0.396  0.511  0.093
  0.644  0.356  0.000  0.000  0.000
  0.000  0.000  0.485  0.480  0.035
    occupations:
  0.160 -0.000 -0.000  0.000  0.000
 -0.000  0.992 -0.000  0.000  0.000
 -0.000 -0.000  0.992  0.000  0.000
  0.000  0.000  0.000  0.160 -0.000
  0.000  0.000  0.000 -0.000  0.992
atomic mag. moment =  -0.00000
N of occupied +U levels =    6.589074
 --- exit write_ns ---

     RESET ns to initial values (iter <= mixing_fixed_ns)

 --- in v_hubbard ---
Hubbard energy   -0.0000
 -------

     total cpu time spent up to now is       43.1 secs

     total energy              =    -381.89076927 Ry
     estimated scf accuracy    <          4.3E-09 Ry

     total magnetization       =    -0.00 Bohr mag/cell
     absolute magnetization    =     0.00 Bohr mag/cell

     iteration # 14     ecut=   800.00 Ry     beta= 0.30
     Davidson diagonalization with overlap
     ethr =  9.41E-12,  avg # of iterations =  2.8
 --- enter write_ns ---
 LDA+U parameters:
U( 1)     =  5.00000000
atom    1   Tr[ns(na)] (up, down, total) =   3.29454  3.29454  6.58909
   spin  1
    eigenvalues: 
  0.160  0.160  0.992  0.992  0.992
    eigenvectors:
  0.028  0.972  0.000  0.000  0.000
  0.000  0.000  0.128  0.004  0.868
  0.000  0.000  0.379  0.537  0.084
  0.972  0.028  0.000  0.000  0.000
  0.000  0.000  0.493  0.459  0.049
    occupations:
  0.160 -0.000 -0.000  0.000  0.000
 -0.000  0.992 -0.000  0.000  0.000
 -0.000 -0.000  0.992  0.000  0.000
  0.000  0.000  0.000  0.160 -0.000
  0.000  0.000  0.000 -0.000  0.992
   spin  2
    eigenvalues: 
  0.160  0.160  0.992  0.992  0.992
    eigenvectors:
  0.044  0.956  0.000  0.000  0.000
  0.000  0.000  0.108  0.003  0.889
  0.000  0.000  0.349  0.588  0.063
  0.956  0.044  0.000  0.000  0.000
  0.000  0.000  0.544  0.409  0.047
    occupations:
  0.160 -0.000 -0.000  0.000  0.000
 -0.000  0.992 -0.000  0.000  0.000
 -0.000 -0.000  0.992  0.000  0.000
  0.000  0.000  0.000  0.160 -0.000
  0.000  0.000  0.000 -0.000  0.992
atomic mag. moment =  -0.00000
N of occupied +U levels =    6.589087
 --- exit write_ns ---

     RESET ns to initial values (iter <= mixing_fixed_ns)

 --- in v_hubbard ---
Hubbard energy   -0.0000
 -------

     total cpu time spent up to now is       45.8 secs

     total energy              =    -381.89076927 Ry
     estimated scf accuracy    <          1.8E-09 Ry

     total magnetization       =    -0.00 Bohr mag/cell
     absolute magnetization    =     0.00 Bohr mag/cell

     iteration # 15     ecut=   800.00 Ry     beta= 0.30
     Davidson diagonalization with overlap
     ethr =  3.95E-12,  avg # of iterations =  2.0
 --- enter write_ns ---
 LDA+U parameters:
U( 1)     =  5.00000000
atom    1   Tr[ns(na)] (up, down, total) =   3.29454  3.29454  6.58908
   spin  1
    eigenvalues: 
  0.160  0.160  0.992  0.992  0.992
    eigenvectors:
  0.019  0.981  0.000  0.000  0.000
  0.000  0.000  0.107  0.002  0.891
  0.000  0.000  0.393  0.543  0.064
  0.981  0.019  0.000  0.000  0.000
  0.000  0.000  0.500  0.455  0.045
    occupations:
  0.160 -0.000 -0.000  0.000  0.000
 -0.000  0.992 -0.000  0.000  0.000
 -0.000 -0.000  0.992  0.000  0.000
  0.000  0.000  0.000  0.160 -0.000
  0.000  0.000  0.000 -0.000  0.992
   spin  2
    eigenvalues: 
  0.160  0.160  0.992  0.992  0.992
    eigenvectors:
  0.000  1.000  0.000  0.000  0.000
  0.000  0.000  0.116  0.001  0.883
  0.000  0.000  0.398  0.539  0.063
  1.000  0.000  0.000  0.000  0.000
  0.000  0.000  0.486  0.460  0.054
    occupations:
  0.160 -0.000 -0.000  0.000  0.000
 -0.000  0.992 -0.000  0.000  0.000
 -0.000 -0.000  0.992  0.000  0.000
  0.000  0.000  0.000  0.160 -0.000
  0.000  0.000  0.000 -0.000  0.992
atomic mag. moment =  -0.00000
N of occupied +U levels =    6.589084
 --- exit write_ns ---

     RESET ns to initial values (iter <= mixing_fixed_ns)

 --- in v_hubbard ---
Hubbard energy   -0.0000
 -------

     total cpu time spent up to now is       48.4 secs

     total energy              =    -381.89076927 Ry
     estimated scf accuracy    <          2.2E-09 Ry

     total magnetization       =     0.00 Bohr mag/cell
     absolute magnetization    =     0.00 Bohr mag/cell

     iteration # 16     ecut=   800.00 Ry     beta= 0.30
     Davidson diagonalization with overlap
     ethr =  3.95E-12,  avg # of iterations =  2.0
 --- enter write_ns ---
 LDA+U parameters:
U( 1)     =  5.00000000
atom    1   Tr[ns(na)] (up, down, total) =   3.29454  3.29454  6.58908
   spin  1
    eigenvalues: 
  0.160  0.160  0.992  0.992  0.992
    eigenvectors:
  0.003  0.997  0.000  0.000  0.000
  0.000  0.000  0.113  0.006  0.881
  0.000  0.000  0.341  0.585  0.074
  0.997  0.003  0.000  0.000  0.000
  0.000  0.000  0.546  0.409  0.045
    occupations:
  0.160 -0.000 -0.000  0.000  0.000
 -0.000  0.992 -0.000  0.000  0.000
 -0.000 -0.000  0.992  0.000  0.000
  0.000  0.000  0.000  0.160 -0.000
  0.000  0.000  0.000 -0.000  0.992
   spin  2
    eigenvalues: 
  0.160  0.160  0.992  0.992  0.992
    eigenvectors:
  0.167  0.833  0.000  0.000  0.000
  0.000  0.000  0.120  0.004  0.876
  0.000  0.000  0.363  0.608  0.029
  0.833  0.167  0.000  0.000  0.000
  0.000  0.000  0.517  0.389  0.094
    occupations:
  0.160 -0.000 -0.000  0.000  0.000
 -0.000  0.992 -0.000  0.000  0.000
 -0.000 -0.000  0.992  0.000  0.000
  0.000  0.000  0.000  0.160 -0.000
  0.000  0.000  0.000 -0.000  0.992
atomic mag. moment =  -0.00000
N of occupied +U levels =    6.589075
 --- exit write_ns ---

     RESET ns to initial values (iter <= mixing_fixed_ns)

 --- in v_hubbard ---
Hubbard energy   -0.0000
 -------

     total cpu time spent up to now is       50.9 secs

     total energy              =    -381.89076927 Ry
     estimated scf accuracy    <          1.3E-10 Ry

     total magnetization       =    -0.00 Bohr mag/cell
     absolute magnetization    =     0.00 Bohr mag/cell

     iteration # 17     ecut=   800.00 Ry     beta= 0.30
     Davidson diagonalization with overlap
     ethr =  2.90E-13,  avg # of iterations =  4.1
 --- enter write_ns ---
 LDA+U parameters:
U( 1)     =  5.00000000
atom    1   Tr[ns(na)] (up, down, total) =   3.29453  3.29453  6.58907
   spin  1
    eigenvalues: 
  0.160  0.160  0.992  0.992  0.992
    eigenvectors:
  0.034  0.966  0.000  0.000  0.000
  0.000  0.000  0.109  0.004  0.887
  0.000  0.000  0.365  0.568  0.067
  0.966  0.034  0.000  0.000  0.000
  0.000  0.000  0.526  0.428  0.045
    occupations:
  0.160 -0.000 -0.000  0.000  0.000
 -0.000  0.992 -0.000  0.000  0.000
 -0.000 -0.000  0.992  0.000  0.000
  0.000  0.000  0.000  0.160 -0.000
  0.000  0.000  0.000 -0.000  0.992
   spin  2
    eigenvalues: 
  0.160  0.160  0.992  0.992  0.992
    eigenvectors:
  0.044  0.956  0.000  0.000  0.000
  0.000  0.000  0.128  0.026  0.846
  0.000  0.000  0.370  0.499  0.130
  0.956  0.044  0.000  0.000  0.000
  0.000  0.000  0.501  0.475  0.024
    occupations:
  0.160 -0.000 -0.000  0.000  0.000
 -0.000  0.992 -0.000  0.000  0.000
 -0.000 -0.000  0.992  0.000  0.000
  0.000  0.000  0.000  0.160 -0.000
  0.000  0.000  0.000 -0.000  0.992
atomic mag. moment =  -0.00000
N of occupied +U levels =    6.589068
 --- exit write_ns ---

     RESET ns to initial values (iter <= mixing_fixed_ns)

 --- in v_hubbard ---
Hubbard energy   -0.0000
 -------

     total cpu time spent up to now is       53.9 secs

     total energy              =    -381.89076927 Ry
     estimated scf accuracy    <          1.9E-10 Ry

     total magnetization       =    -0.00 Bohr mag/cell
     absolute magnetization    =     0.00 Bohr mag/cell

     iteration # 18     ecut=   800.00 Ry     beta= 0.30
     Davidson diagonalization with overlap
     ethr =  2.90E-13,  avg # of iterations =  2.0
 --- enter write_ns ---
 LDA+U parameters:
U( 1)     =  5.00000000
atom    1   Tr[ns(na)] (up, down, total) =   3.29454  3.29454  6.58907
   spin  1
    eigenvalues: 
  0.160  0.160  0.992  0.992  0.992
    eigenvectors:
  0.018  0.982  0.000  0.000  0.000
  0.000  0.000  0.111  0.000  0.889
  0.000  0.000  0.398  0.557  0.045
  0.982  0.018  0.000  0.000  0.000
  0.000  0.000  0.491  0.443  0.066
    occupations:
  0.160 -0.000 -0.000  0.000  0.000
 -0.000  0.992 -0.000  0.000  0.000
 -0.000 -0.000  0.992  0.000  0.000
  0.000  0.000  0.000  0.160 -0.000
  0.000  0.000  0.000 -0.000  0.992
   spin  2
    eigenvalues: 
  0.160  0.160  0.992  0.992  0.992
    eigenvectors:
  0.003  0.997  0.000  0.000  0.000
  0.000  0.000  0.117  0.002  0.881
  0.000  0.000  0.384  0.550  0.066
  0.997  0.003  0.000  0.000  0.000
  0.000  0.000  0.499  0.449  0.053
    occupations:
  0.160 -0.000 -0.000  0.000  0.000
 -0.000  0.992 -0.000  0.000  0.000
 -0.000 -0.000  0.992  0.000  0.000
  0.000  0.000  0.000  0.160 -0.000
  0.000  0.000  0.000 -0.000  0.992
atomic mag. moment =   0.00000
N of occupied +U levels =    6.589071
 --- exit write_ns ---

     RESET ns to initial values (iter <= mixing_fixed_ns)

 --- in v_hubbard ---
Hubbard energy   -0.0000
 -------
 
     Magnetic moment per site:
     atom:    1    charge:   13.4922    magn:   -0.0000    constr:    0.0000
     atom:    2    charge:    0.2535    magn:   -0.0000    constr:    0.0000
     atom:    3    charge:    0.2535    magn:   -0.0000    constr:    0.0000
     atom:    4    charge:    0.2535    magn:   -0.0000    constr:    0.0000
     atom:    5    charge:    5.8458    magn:    0.0000    constr:    0.0000
     atom:    6    charge:    5.8349    magn:   -0.0000    constr:    0.0000
     atom:    7    charge:    5.8349    magn:   -0.0000    constr:    0.0000
     atom:    8    charge:    5.8349    magn:   -0.0000    constr:    0.0000

     total cpu time spent up to now is       56.3 secs

     End of self-consistent calculation

 ------ SPIN UP ------------


          k = 0.0000 0.0000 0.0000 (192431 PWs)   bands (ev):

   -77.1305 -42.7447 -42.7447 -42.7447 -10.0747  -8.5357  -8.5357  -8.4493
     3.2503   3.2503   3.2503   5.6249   5.6249   5.6249   5.9761   5.9761
     5.9761   5.9913   5.9913   5.9913   7.3379   7.3379   7.3379  11.7559
    11.7559  12.1288  17.2609  17.7475  17.7475  17.9268  17.9268  17.9268

     occupation numbers 
     1.0000   1.0000   1.0000   1.0000   1.0000   1.0000   1.0000   1.0000
     1.0000   1.0000   1.0000   1.0000   1.0000   1.0000   1.0000   1.0000
     1.0000   1.0000   1.0000   1.0000   1.0000   1.0000   1.0000   0.0000
     0.0000   0.0000   0.0000   0.0000   0.0000   0.0000   0.0000   0.0000

          k = 0.0000 0.0000-0.5000 (192616 PWs)   bands (ev):

   -77.1305 -42.7457 -42.7446 -42.7446  -9.3690  -9.2669  -8.4903  -8.4256
     3.6699   3.6699   4.3429   4.3500   4.3500   4.7220   5.4528   5.5768
     5.6489   5.9645   5.9645   6.5262   6.5262   7.5164   7.5164  11.7612
    12.2836  15.6111  15.8316  18.8052  19.1346  19.1346  19.7567  19.9117

     occupation numbers 
     1.0000   1.0000   1.0000   1.0000   1.0000   1.0000   1.0000   1.0000
     1.0000   1.0000   1.0000   1.0000   1.0000   1.0000   1.0000   1.0000
     1.0000   1.0000   1.0000   1.0000   1.0000   1.0000   1.0000   0.0000
     0.0000   0.0000   0.0000   0.0000   0.0000   0.0000   0.0000   0.0000

          k = 0.0000-0.5000-0.5000 (192516 PWs)   bands (ev):

   -77.1305 -42.7456 -42.7456 -42.7446  -8.9000  -8.8888  -8.8888  -8.7427
     2.8400   3.4498   3.9121   3.9121   4.1050   4.1050   5.2583   5.4377
     5.6552   6.6757   6.7293   6.7293   7.3041   7.3041   7.3472  11.9522
    13.5178  17.0175  17.0175  17.0749  17.1469  19.2280  19.3989  20.1567

     occupation numbers 
     1.0000   1.0000   1.0000   1.0000   1.0000   1.0000   1.0000   1.0000
     1.0000   1.0000   1.0000   1.0000   1.0000   1.0000   1.0000   1.0000
     1.0000   1.0000   1.0000   1.0000   1.0000   1.0000   1.0000   0.0000
     0.0000   0.0000   0.0000   0.0000   0.0000   0.0000   0.0000   0.0000

          k =-0.5000-0.5000-0.5000 (192672 PWs)   bands (ev):

   -77.1305 -42.7456 -42.7456 -42.7456  -8.8251  -8.8251  -8.8251  -8.6734
     2.1291   2.1291   2.1291   2.4424   5.6512   5.6512   5.9261   5.9261
     5.9261   6.6715   6.6715   6.6715   7.7829   7.7829   7.7829  13.5166
    13.5166  15.4475  15.4475  15.4475  15.4844  19.8274  20.4343  20.4343

     occupation numbers 
     1.0000   1.0000   1.0000   1.0000   1.0000   1.0000   1.0000   1.0000
     1.0000   1.0000   1.0000   1.0000   1.0000   1.0000   1.0000   1.0000
     1.0000   1.0000   1.0000   1.0000   1.0000   1.0000   1.0000   0.0000
     0.0000   0.0000   0.0000   0.0000   0.0000   0.0000   0.0000   0.0000

 ------ SPIN DOWN ----------


          k = 0.0000 0.0000 0.0000 (192431 PWs)   bands (ev):

   -77.1305 -42.7447 -42.7447 -42.7447 -10.0747  -8.5357  -8.5357  -8.4493
     3.2503   3.2503   3.2503   5.6249   5.6249   5.6249   5.9761   5.9761
     5.9761   5.9913   5.9913   5.9913   7.3379   7.3379   7.3379  11.7559
    11.7559  12.1288  17.2609  17.7475  17.7475  17.9268  17.9268  17.9268

     occupation numbers 
     1.0000   1.0000   1.0000   1.0000   1.0000   1.0000   1.0000   1.0000
     1.0000   1.0000   1.0000   1.0000   1.0000   1.0000   1.0000   1.0000
     1.0000   1.0000   1.0000   1.0000   1.0000   1.0000   1.0000   0.0000
     0.0000   0.0000   0.0000   0.0000   0.0000   0.0000   0.0000   0.0000

          k = 0.0000 0.0000-0.5000 (192616 PWs)   bands (ev):

   -77.1305 -42.7457 -42.7446 -42.7446  -9.3690  -9.2669  -8.4903  -8.4256
     3.6699   3.6699   4.3429   4.3500   4.3500   4.7220   5.4528   5.5768
     5.6489   5.9645   5.9645   6.5262   6.5262   7.5164   7.5164  11.7612
    12.2836  15.6111  15.8316  18.8052  19.1346  19.1346  19.7567  19.9117

     occupation numbers 
     1.0000   1.0000   1.0000   1.0000   1.0000   1.0000   1.0000   1.0000
     1.0000   1.0000   1.0000   1.0000   1.0000   1.0000   1.0000   1.0000
     1.0000   1.0000   1.0000   1.0000   1.0000   1.0000   1.0000   0.0000
     0.0000   0.0000   0.0000   0.0000   0.0000   0.0000   0.0000   0.0000

          k = 0.0000-0.5000-0.5000 (192516 PWs)   bands (ev):

   -77.1305 -42.7456 -42.7456 -42.7446  -8.9000  -8.8888  -8.8888  -8.7427
     2.8400   3.4498   3.9121   3.9121   4.1050   4.1050   5.2583   5.4377
     5.6552   6.6757   6.7293   6.7293   7.3041   7.3041   7.3472  11.9522
    13.5178  17.0175  17.0175  17.0749  17.1469  19.2280  19.3989  20.1566

     occupation numbers 
     1.0000   1.0000   1.0000   1.0000   1.0000   1.0000   1.0000   1.0000
     1.0000   1.0000   1.0000   1.0000   1.0000   1.0000   1.0000   1.0000
     1.0000   1.0000   1.0000   1.0000   1.0000   1.0000   1.0000   0.0000
     0.0000   0.0000   0.0000   0.0000   0.0000   0.0000   0.0000   0.0000

          k =-0.5000-0.5000-0.5000 (192672 PWs)   bands (ev):

   -77.1305 -42.7456 -42.7456 -42.7456  -8.8251  -8.8251  -8.8251  -8.6734
     2.1291   2.1291   2.1291   2.4424   5.6512   5.6512   5.9261   5.9261
     5.9261   6.6715   6.6715   6.6715   7.7829   7.7829   7.7829  13.5166
    13.5166  15.4475  15.4475  15.4475  15.4844  19.8274  20.4343  20.4343

     occupation numbers 
     1.0000   1.0000   1.0000   1.0000   1.0000   1.0000   1.0000   1.0000
     1.0000   1.0000   1.0000   1.0000   1.0000   1.0000   1.0000   1.0000
     1.0000   1.0000   1.0000   1.0000   1.0000   1.0000   1.0000   0.0000
     0.0000   0.0000   0.0000   0.0000   0.0000   0.0000   0.0000   0.0000

     the spin up/dw Fermi energies are     9.8036    9.8036 ev

!    total energy              =    -381.89076927 Ry
     estimated scf accuracy    <          1.7E-11 Ry
     smearing contrib. (-TS)   =       0.00000000 Ry
     internal energy E=F+TS    =    -381.89076927 Ry

     The total energy is F=E-TS. E is the sum of the following terms:
     one-electron contribution =    -239.72379992 Ry
     hartree contribution      =     146.67836350 Ry
     xc contribution           =     -58.35734450 Ry
     ewald contribution        =    -230.48798836 Ry
     Hubbard energy            =      -0.00000000 Ry

     total magnetization       =     0.00 Bohr mag/cell
     absolute magnetization    =     0.00 Bohr mag/cell

     convergence has been achieved in  18 iterations

     Forces acting on atoms (cartesian axes, Ry/au):

     atom    1 type  1   force =     0.00000000    0.00000000    0.00000000
     atom    2 type  2   force =     0.00000000    0.00000000   -0.00000000
     atom    3 type  2   force =     0.00000000   -0.00000000    0.00000000
     atom    4 type  2   force =     0.00000000    0.00000000    0.00000000
     atom    5 type  3   force =     0.00000000    0.00000000    0.00000000
     atom    6 type  3   force =     0.00000000    0.00000000    0.00000000
     atom    7 type  3   force =     0.00000000    0.00000000    0.00000000
     atom    8 type  3   force =     0.00000000    0.00000000    0.00000000
     The non-local contrib.  to forces
     atom    1 type  1   force =     0.00000000    0.00000000    0.00000000
     atom    2 type  2   force =     0.00000000   -0.00000000    0.00000000
     atom    3 type  2   force =     0.00000000    0.00000000   -0.00000000
     atom    4 type  2   force =     0.00000000    0.00000000    0.00000000
     atom    5 type  3   force =     0.00000000    0.00000000    0.00000000
     atom    6 type  3   force =     0.00000000    0.00000000    0.00000000
     atom    7 type  3   force =     0.00000000    0.00000000    0.00000000
     atom    8 type  3   force =     0.00000000   -0.00000000    0.00000000
     The ionic contribution  to forces
     atom    1 type  1   force =    -0.00000000   -0.00000000   -0.00000000
     atom    2 type  2   force =    -0.00000000    0.00000000    0.00000000
     atom    3 type  2   force =     0.00000000   -0.00000000    0.00000000
     atom    4 type  2   force =     0.00000000    0.00000000   -0.00000000
     atom    5 type  3   force =     0.00000000    0.00000000    0.00000000
     atom    6 type  3   force =     0.00000000   -0.00000000   -0.00000000
     atom    7 type  3   force =    -0.00000000    0.00000000   -0.00000000
     atom    8 type  3   force =    -0.00000000   -0.00000000    0.00000000
     The local contribution  to forces
     atom    1 type  1   force =     0.00000000    0.00000000    0.00000000
     atom    2 type  2   force =    -0.00000000    0.00000000    0.00000000
     atom    3 type  2   force =     0.00000000   -0.00000000    0.00000000
     atom    4 type  2   force =     0.00000000    0.00000000   -0.00000000
     atom    5 type  3   force =     0.00000000    0.00000000    0.00000000
     atom    6 type  3   force =     0.00000000    0.00000000    0.00000000
     atom    7 type  3   force =     0.00000000    0.00000000    0.00000000
     atom    8 type  3   force =     0.00000000    0.00000000    0.00000000
     The core correction contribution to forces
     atom    1 type  1   force =     0.00000000    0.00000000    0.00000000
     atom    2 type  2   force =     0.00000000    0.00000000    0.00000000
     atom    3 type  2   force =     0.00000000    0.00000000    0.00000000
     atom    4 type  2   force =     0.00000000    0.00000000    0.00000000
     atom    5 type  3   force =     0.00000000    0.00000000    0.00000000
     atom    6 type  3   force =     0.00000000    0.00000000    0.00000000
     atom    7 type  3   force =     0.00000000    0.00000000    0.00000000
     atom    8 type  3   force =     0.00000000    0.00000000    0.00000000
     The Hubbard contrib.    to forces
     atom    1 type  1   force =     0.00000000    0.00000000    0.00000000
     atom    2 type  2   force =     0.00000000    0.00000000    0.00000000
     atom    3 type  2   force =     0.00000000    0.00000000    0.00000000
     atom    4 type  2   force =     0.00000000    0.00000000    0.00000000
     atom    5 type  3   force =     0.00000000    0.00000000    0.00000000
     atom    6 type  3   force =     0.00000000    0.00000000    0.00000000
     atom    7 type  3   force =     0.00000000    0.00000000    0.00000000
     atom    8 type  3   force =     0.00000000    0.00000000    0.00000000
     The SCF correction term to forces
     atom    1 type  1   force =    -0.00000000   -0.00000000    0.00000000
     atom    2 type  2   force =     0.00000000    0.00000000   -0.00000000
     atom    3 type  2   force =     0.00000000    0.00000000    0.00000000
     atom    4 type  2   force =     0.00000000    0.00000000   -0.00000000
     atom    5 type  3   force =    -0.00000000   -0.00000000   -0.00000000
     atom    6 type  3   force =    -0.00000000   -0.00000000   -0.00000000
     atom    7 type  3   force =    -0.00000000    0.00000000   -0.00000000
     atom    8 type  3   force =    -0.00000000   -0.00000000    0.00000000

     Total force =     0.000000     Total SCF correction =     0.000000


     Computing stress (Cartesian axis) and pressure

          total   stress  (Ry/bohr**3)                   (kbar)     P=       96.36
   0.00065505   0.00000000   0.00000000           96.36        0.00        0.00
   0.00000000   0.00065505   0.00000000            0.00       96.36        0.00
   0.00000000   0.00000000   0.00065505            0.00        0.00       96.36

     kinetic stress (kbar)  48212.77      0.00      0.00
                                0.00  48212.77      0.00
                                0.00      0.00  48212.77

     local   stress (kbar) -16811.63      0.00      0.00
                                0.00 -16811.63     -0.00
                                0.00     -0.00 -16811.63

     nonloc. stress (kbar) -17765.93      0.00      0.00
                                0.00 -17765.93      0.00
                                0.00      0.00 -17765.93

     hartree stress (kbar)  14273.39      0.00      0.00
                                0.00  14273.39     -0.00
                                0.00     -0.00  14273.39

     exc-cor stress (kbar)  -5392.46     -0.00     -0.00
                               -0.00  -5392.46      0.00
                               -0.00      0.00  -5392.46

     corecor stress (kbar)      0.00      0.00      0.00
                                0.00      0.00      0.00
                                0.00      0.00      0.00

     ewald   stress (kbar) -22428.97      0.00     -0.00
                                0.00 -22428.97      0.00
                               -0.00      0.00 -22428.97

     hubbard stress (kbar)      9.19      0.00      0.00
                                0.00      9.19      0.00
                                0.00      0.00      9.19

     DFT-D   stress (kbar)      0.00      0.00      0.00
                                0.00      0.00      0.00
                                0.00      0.00      0.00

     XDM     stress (kbar)      0.00      0.00      0.00
                                0.00      0.00      0.00
                                0.00      0.00      0.00

     dft-nl  stress (kbar)      0.00      0.00      0.00
                                0.00      0.00      0.00
                                0.00      0.00      0.00

     TS-vdW  stress (kbar)      0.00      0.00      0.00
                                0.00      0.00      0.00
                                0.00      0.00      0.00



     Writing output data file pwscf_output/pwscf.save/
 
     init_run     :      3.16s CPU      3.48s WALL (       1 calls)
     electrons    :     50.61s CPU     52.50s WALL (       1 calls)
     forces       :      0.26s CPU      0.26s WALL (       1 calls)
     stress       :      0.97s CPU      0.98s WALL (       1 calls)

     Called by init_run:
     wfcinit      :      1.32s CPU      1.48s WALL (       1 calls)
     wfcinit:atom :      0.03s CPU      0.03s WALL (       8 calls)
     wfcinit:wfcr :      1.16s CPU      1.30s WALL (       8 calls)
     potinit      :      0.16s CPU      0.23s WALL (       1 calls)
     hinit0       :      1.14s CPU      1.20s WALL (       1 calls)

     Called by electrons:
     c_bands      :     41.00s CPU     41.36s WALL (      18 calls)
     sum_band     :      6.83s CPU      6.93s WALL (      18 calls)
     v_of_rho     :      1.95s CPU      2.10s WALL (      19 calls)
     v_h          :      0.08s CPU      0.08s WALL (      19 calls)
     v_xc         :      1.87s CPU      2.02s WALL (      19 calls)
     mix_rho      :      0.76s CPU      0.80s WALL (      18 calls)

     Called by c_bands:
     init_us_2    :      0.36s CPU      0.37s WALL (     336 calls)
     cegterg      :     40.14s CPU     40.47s WALL (     144 calls)

     Called by sum_band:
     sum_band:wei :      0.00s CPU      0.00s WALL (      18 calls)
     sum_band:loo :      6.22s CPU      6.28s WALL (      18 calls)
     sum_band:buf :      0.20s CPU      0.21s WALL (     144 calls)
     sum_band:ini :      0.16s CPU      0.16s WALL (     144 calls)

     Called by *egterg:
     cdiaghg      :      2.62s CPU      2.74s WALL (     653 calls)
     cegterg:over :      3.16s CPU      3.17s WALL (     509 calls)
     cegterg:upda :      2.51s CPU      2.53s WALL (     509 calls)
     cegterg:last :      2.40s CPU      2.41s WALL (     311 calls)
     cdiaghg:chol :      0.18s CPU      0.25s WALL (     653 calls)
     cdiaghg:inve :      0.03s CPU      0.04s WALL (     653 calls)
     cdiaghg:para :      0.18s CPU      0.18s WALL (    1306 calls)
     h_psi        :     29.42s CPU     29.72s WALL (     661 calls)
     g_psi        :      0.13s CPU      0.14s WALL (     509 calls)

     Called by h_psi:
     h_psi:calbec :      0.79s CPU      0.80s WALL (     661 calls)
     vloc_psi     :     26.60s CPU     26.86s WALL (     661 calls)
     add_vuspsi   :      0.98s CPU      1.01s WALL (     661 calls)
     vhpsi        :      0.61s CPU      0.62s WALL (     661 calls)

     General routines
     calbec       :      1.33s CPU      1.36s WALL (    1618 calls)
     fft          :      0.89s CPU      1.06s WALL (     370 calls)
     ffts         :      0.08s CPU      0.09s WALL (      36 calls)
     fftw         :     27.27s CPU     27.54s WALL (   29504 calls)
     davcio       :      0.00s CPU      0.08s WALL (       8 calls)
 
     Parallel routines
     fft_scatt_xy :      4.02s CPU      4.06s WALL (   29910 calls)
     fft_scatt_yz :     14.00s CPU     14.27s WALL (   29910 calls)

     Hubbard U routines
     new_ns       :      0.25s CPU      0.26s WALL (      18 calls)
     new_ns       :      0.25s CPU      0.26s WALL (      18 calls)
     vhpsi        :      0.61s CPU      0.62s WALL (     661 calls)
     force_hub    :      0.10s CPU      0.10s WALL (       1 calls)
     stres_hub    :      0.34s CPU      0.34s WALL (       1 calls)
 
     PWSCF        :     55.61s CPU   1m27.62s WALL

 
   This run was terminated on:  15:22: 8  27Nov2021            

=------------------------------------------------------------------------------=
   JOB DONE.
=------------------------------------------------------------------------------=
