
     Program PWSCF v.5.3.0 (svn rev. 11974) starts on 25Aug2017 at  9:33:14 

     This program is part of the open-source Quantum ESPRESSO suite
     for quantum simulation of materials; please cite
         "P. Giannozzi et al., J. Phys.:Condens. Matter 21 395502 (2009);
          URL http://www.quantum-espresso.org", 
     in publications or presentations arising from this work. More details at
     http://www.quantum-espresso.org/quote

     Parallel version (MPI), running on    36 processors
     R & G space division:  proc/nbgrp/npool/nimage =      36
     Reading input from scf.in
     Message from routine read_cards :
     DEPRECATED: no units specified in CELL_PARAMETERS card

     Current dimensions of program PWSCF are:
     Max number of different atomic species (ntypx) = 10
     Max number of k-points (npk) =  40000
     Max angular momentum in pseudopotentials (lmaxx) =  3

     IMPORTANT: XC functional enforced from input :
     Exchange-correlation      = PBE ( 1  4  3  4 0 0)
     Any further DFT definition will be discarded
     Please, verify this is what you really want


     Subspace diagonalization in iterative solution of the eigenvalue problem:
     a serial algorithm will be used

 
     Parallelization info
     --------------------
     sticks:   dense  smooth     PW     G-vecs:    dense   smooth      PW
     Min         176     176     49                 7035     7035    1034
     Max         177     177     50                 7039     7039    1037
     Sum        6361    6361   1775               253351   253351   37261
 
     Generating pointlists ...
     new r_m :   0.4125 (alat units)  0.4125 (a.u.) for type    1
     new r_m :   0.4125 (alat units)  0.4125 (a.u.) for type    2
     new r_m :   0.4125 (alat units)  0.4125 (a.u.) for type    3


     bravais-lattice index     =            0
     lattice parameter (alat)  =       1.0000  a.u.
     unit-cell volume          =     274.6840 (a.u.)^3
     number of atoms/cell      =            4
     number of atomic types    =            3
     number of electrons       =        44.00 (up:  22.00, down:  22.00)
     number of Kohn-Sham states=           32
     kinetic-energy cutoff     =     360.0000  Ry
     charge density cutoff     =    1440.0000  Ry
     convergence threshold     =      1.0E-10
     mixing beta               =       0.3000
     number of iterations used =            8  plain     mixing
     Exchange-correlation      = PBE ( 1  4  3  4 0 0)

     celldm(1)=   1.000000  celldm(2)=   0.000000  celldm(3)=   0.000000
     celldm(4)=   0.000000  celldm(5)=   0.000000  celldm(6)=   0.000000

     crystal axes: (cart. coord. in units of alat)
               a(1) = (   8.190073   4.095037   4.095037 )  
               a(2) = (   4.095037   8.190073   4.095037 )  
               a(3) = (   4.095037   4.095037   8.190073 )  

     reciprocal axes: (cart. coord. in units 2 pi/alat)
               b(1) = (  0.183149 -0.061050 -0.061050 )  
               b(2) = ( -0.061050  0.183149 -0.061050 )  
               b(3) = ( -0.061050 -0.061050  0.183149 )  


     PseudoPot. # 1 for Fe read from file:
     ../Fe.opt.upf
     MD5 check sum: 0a1f874e4978502669d7d49c3d82089b
     Pseudo is Norm-conserving, Zval = 16.0
     Generated by new atomic code, or converted to UPF format
     Using radial grid of 1160 points,  2 beta functions with: 
                l(1) =   0
                l(2) =   2

     PseudoPot. # 2 for Fe read from file:
     ../Fe.opt.upf
     MD5 check sum: 0a1f874e4978502669d7d49c3d82089b
     Pseudo is Norm-conserving, Zval = 16.0
     Generated by new atomic code, or converted to UPF format
     Using radial grid of 1160 points,  2 beta functions with: 
                l(1) =   0
                l(2) =   2

     PseudoPot. # 3 for O  read from file:
     ../O.opt.upf
     MD5 check sum: 0b670aeee1f35195f09134313df81f8f
     Pseudo is Norm-conserving, Zval =  6.0
     Generated by new atomic code, or converted to UPF format
     Using radial grid of 1130 points,  1 beta functions with: 
                l(1) =   1

     atomic species   valence    mass     pseudopotential
        Fe1           16.00    55.84500     Fe( 1.00)
        Fe2           16.00    55.84500     Fe( 1.00)
        O              6.00    15.99900     O ( 1.00)

     Starting magnetic structure 
     atomic species   magnetization
        Fe1         -0.500
        Fe2          0.500
        O            0.000


     Full LDA+U calculation (l_max = 2) with parameters (eV):
     U(  1) =   4.3000   J(  1) =   0.0000   B(  1) =   0.0000
     U(  2) =   4.3000   J(  2) =   0.0000   B(  2) =   0.0000



     12 Sym. Ops., with inversion, found


                                    s                        frac. trans.

      isym =  1     identity                                     

 cryst.   s( 1) = (     1          0          0      )
                  (     0          1          0      )
                  (     0          0          1      )

 cart.    s( 1) = (  1.0000000  0.0000000  0.0000000 )
                  (  0.0000000  1.0000000  0.0000000 )
                  (  0.0000000  0.0000000  1.0000000 )


      isym =  2     180 deg rotation - cart. axis [1,-1,0]       

 cryst.   s( 2) = (     0         -1          0      )
                  (    -1          0          0      )
                  (     0          0         -1      )

 cart.    s( 2) = ( -0.0000000 -1.0000000 -0.0000000 )
                  ( -1.0000000 -0.0000000 -0.0000000 )
                  ( -0.0000000 -0.0000000 -1.0000000 )


      isym =  3     180 deg rotation - cart. axis [-1,0,1]       

 cryst.   s( 3) = (     0          0         -1      )
                  (     0         -1          0      )
                  (    -1          0          0      )

 cart.    s( 3) = ( -0.0000000 -0.0000000 -1.0000000 )
                  ( -0.0000000 -1.0000000 -0.0000000 )
                  ( -1.0000000 -0.0000000 -0.0000000 )


      isym =  4     180 deg rotation - cart. axis [0,1,-1]       

 cryst.   s( 4) = (    -1          0          0      )
                  (     0          0         -1      )
                  (     0         -1          0      )

 cart.    s( 4) = ( -1.0000000 -0.0000000 -0.0000000 )
                  ( -0.0000000 -0.0000000 -1.0000000 )
                  ( -0.0000000 -1.0000000 -0.0000000 )


      isym =  5     120 deg rotation - cart. axis [-1,-1,-1]     

 cryst.   s( 5) = (     0          0          1      )
                  (     1          0          0      )
                  (     0          1          0      )

 cart.    s( 5) = (  0.0000000  1.0000000  0.0000000 )
                  (  0.0000000  0.0000000  1.0000000 )
                  (  1.0000000  0.0000000  0.0000000 )


      isym =  6     120 deg rotation - cart. axis [1,1,1]        

 cryst.   s( 6) = (     0          1          0      )
                  (     0          0          1      )
                  (     1          0          0      )

 cart.    s( 6) = (  0.0000000  0.0000000  1.0000000 )
                  (  1.0000000  0.0000000  0.0000000 )
                  (  0.0000000  1.0000000  0.0000000 )


      isym =  7     inversion                                    

 cryst.   s( 7) = (    -1          0          0      )
                  (     0         -1          0      )
                  (     0          0         -1      )

 cart.    s( 7) = ( -1.0000000 -0.0000000 -0.0000000 )
                  ( -0.0000000 -1.0000000 -0.0000000 )
                  ( -0.0000000 -0.0000000 -1.0000000 )


      isym =  8     inv. 180 deg rotation - cart. axis [1,-1,0]  

 cryst.   s( 8) = (     0          1          0      )
                  (     1          0          0      )
                  (     0          0          1      )

 cart.    s( 8) = (  0.0000000  1.0000000  0.0000000 )
                  (  1.0000000  0.0000000  0.0000000 )
                  (  0.0000000  0.0000000  1.0000000 )


      isym =  9     inv. 180 deg rotation - cart. axis [-1,0,1]  

 cryst.   s( 9) = (     0          0          1      )
                  (     0          1          0      )
                  (     1          0          0      )

 cart.    s( 9) = (  0.0000000  0.0000000  1.0000000 )
                  (  0.0000000  1.0000000  0.0000000 )
                  (  1.0000000  0.0000000  0.0000000 )


      isym = 10     inv. 180 deg rotation - cart. axis [0,1,-1]  

 cryst.   s(10) = (     1          0          0      )
                  (     0          0          1      )
                  (     0          1          0      )

 cart.    s(10) = (  1.0000000  0.0000000  0.0000000 )
                  (  0.0000000  0.0000000  1.0000000 )
                  (  0.0000000  1.0000000  0.0000000 )


      isym = 11     inv. 120 deg rotation - cart. axis [-1,-1,-1]

 cryst.   s(11) = (     0          0         -1      )
                  (    -1          0          0      )
                  (     0         -1          0      )

 cart.    s(11) = ( -0.0000000 -1.0000000 -0.0000000 )
                  ( -0.0000000 -0.0000000 -1.0000000 )
                  ( -1.0000000 -0.0000000 -0.0000000 )


      isym = 12     inv. 120 deg rotation - cart. axis [1,1,1]   

 cryst.   s(12) = (     0         -1          0      )
                  (     0          0         -1      )
                  (    -1          0          0      )

 cart.    s(12) = ( -0.0000000 -0.0000000 -1.0000000 )
                  ( -1.0000000 -0.0000000 -0.0000000 )
                  ( -0.0000000 -1.0000000 -0.0000000 )


   Cartesian axes

     site n.     atom                  positions (alat units)
         1           Fe1 tau(   1) = (   0.0000000   0.0000000   0.0000000  )
         2           Fe2 tau(   2) = (   8.1900731   8.1900731   8.1900731  )
         3           O   tau(   3) = (   4.0950365   4.0950365   4.0950365  )
         4           O   tau(   4) = (  12.2851096  12.2851096  12.2851096  )

   Crystallographic axes

     site n.     atom                  positions (cryst. coord.)
         1           Fe1 tau(   1) = (  0.0000000  0.0000000  0.0000000  )
         2           Fe2 tau(   2) = (  0.5000000  0.5000000  0.5000000  )
         3           O   tau(   3) = (  0.2500000  0.2500000  0.2500000  )
         4           O   tau(   4) = (  0.7500000  0.7500000  0.7500000  )

     number of k points=    28  Fermi-Dirac smearing, width (Ry)=  0.0010
                       cart. coord. in units 2pi/alat
        k(    1) = (   0.0050875   0.0050875   0.0050875), wk =   0.0092593
        k(    2) = (  -0.0050875  -0.0050875   0.0356122), wk =   0.0277778
        k(    3) = (  -0.0152624  -0.0152624   0.0661370), wk =   0.0277778
        k(    4) = (   0.0356122   0.0356122  -0.0864868), wk =   0.0277778
        k(    5) = (   0.0254373   0.0254373  -0.0559621), wk =   0.0277778
        k(    6) = (   0.0152624   0.0152624  -0.0254373), wk =   0.0277778
        k(    7) = (  -0.0152624   0.0254373   0.0254373), wk =   0.0277778
        k(    8) = (  -0.0254373   0.0152624   0.0559621), wk =   0.0555556
        k(    9) = (   0.0254373   0.0661370  -0.0966617), wk =   0.0555556
        k(   10) = (   0.0152624   0.0559621  -0.0661370), wk =   0.0555556
        k(   11) = (   0.0050875   0.0457871  -0.0356122), wk =   0.0555556
        k(   12) = (  -0.0356122   0.0457871   0.0457871), wk =   0.0277778
        k(   13) = (   0.0152624   0.0966617  -0.1068367), wk =   0.0555556
        k(   14) = (   0.0050875   0.0864868  -0.0763119), wk =   0.0555556
        k(   15) = (  -0.0050875   0.0763119  -0.0457871), wk =   0.0555556
        k(   16) = (   0.0661370  -0.0559621  -0.0559621), wk =   0.0277778
        k(   17) = (   0.0559621  -0.0661370  -0.0254373), wk =   0.0555556
        k(   18) = (   0.0457871  -0.0356122  -0.0356122), wk =   0.0277778
        k(   19) = (   0.0152624   0.0152624   0.0152624), wk =   0.0092593
        k(   20) = (   0.0050875   0.0050875   0.0457871), wk =   0.0277778
        k(   21) = (   0.0559621   0.0559621  -0.1068367), wk =   0.0277778
        k(   22) = (   0.0457871   0.0457871  -0.0763119), wk =   0.0277778
        k(   23) = (  -0.0050875   0.0356122   0.0356122), wk =   0.0277778
        k(   24) = (   0.0457871   0.0864868  -0.1170116), wk =   0.0555556
        k(   25) = (   0.0356122   0.0763119  -0.0864868), wk =   0.0555556
        k(   26) = (   0.0966617  -0.0661370  -0.0661370), wk =   0.0277778
        k(   27) = (   0.0254373   0.0254373   0.0254373), wk =   0.0092593
        k(   28) = (   0.0763119   0.0763119  -0.1271865), wk =   0.0277778

                       cryst. coord.
        k(    1) = (   0.0833333   0.0833333   0.0833333), wk =   0.0092593
        k(    2) = (   0.0833333   0.0833333   0.2500000), wk =   0.0277778
        k(    3) = (   0.0833333   0.0833333   0.4166667), wk =   0.0277778
        k(    4) = (   0.0833333   0.0833333  -0.4166667), wk =   0.0277778
        k(    5) = (   0.0833333   0.0833333  -0.2500000), wk =   0.0277778
        k(    6) = (   0.0833333   0.0833333  -0.0833333), wk =   0.0277778
        k(    7) = (   0.0833333   0.2500000   0.2500000), wk =   0.0277778
        k(    8) = (   0.0833333   0.2500000   0.4166667), wk =   0.0555556
        k(    9) = (   0.0833333   0.2500000  -0.4166667), wk =   0.0555556
        k(   10) = (   0.0833333   0.2500000  -0.2500000), wk =   0.0555556
        k(   11) = (   0.0833333   0.2500000  -0.0833333), wk =   0.0555556
        k(   12) = (   0.0833333   0.4166667   0.4166667), wk =   0.0277778
        k(   13) = (   0.0833333   0.4166667  -0.4166667), wk =   0.0555556
        k(   14) = (   0.0833333   0.4166667  -0.2500000), wk =   0.0555556
        k(   15) = (   0.0833333   0.4166667  -0.0833333), wk =   0.0555556
        k(   16) = (   0.0833333  -0.4166667  -0.4166667), wk =   0.0277778
        k(   17) = (   0.0833333  -0.4166667  -0.2500000), wk =   0.0555556
        k(   18) = (   0.0833333  -0.2500000  -0.2500000), wk =   0.0277778
        k(   19) = (   0.2500000   0.2500000   0.2500000), wk =   0.0092593
        k(   20) = (   0.2500000   0.2500000   0.4166667), wk =   0.0277778
        k(   21) = (   0.2500000   0.2500000  -0.4166667), wk =   0.0277778
        k(   22) = (   0.2500000   0.2500000  -0.2500000), wk =   0.0277778
        k(   23) = (   0.2500000   0.4166667   0.4166667), wk =   0.0277778
        k(   24) = (   0.2500000   0.4166667  -0.4166667), wk =   0.0555556
        k(   25) = (   0.2500000   0.4166667  -0.2500000), wk =   0.0555556
        k(   26) = (   0.2500000  -0.4166667  -0.4166667), wk =   0.0277778
        k(   27) = (   0.4166667   0.4166667   0.4166667), wk =   0.0092593
        k(   28) = (   0.4166667   0.4166667  -0.4166667), wk =   0.0277778

     Dense  grid:   253351 G-vectors     FFT dimensions: ( 125, 125, 125)

     Largest allocated arrays     est. size (Mb)     dimensions
        Kohn-Sham Wavefunctions         0.44 Mb     (     892,   32)
        Atomic Hubbard wavefuncts       0.14 Mb     (     892,   10)
        NL pseudopotentials             0.24 Mb     (     892,   18)
        Each V/rho on FFT grid          1.91 Mb     (   62500,   2)
        Each G-vector array             0.05 Mb     (    7036)
        G-vector shells                 0.01 Mb     (    1789)
     Largest temporary arrays     est. size (Mb)     dimensions
        Auxiliary wavefunctions         1.74 Mb     (     892,  128)
        Each subspace H/S matrix        0.25 Mb     (     128,  128)
        Each <psi_i|beta_j> matrix      0.01 Mb     (      18,   32)
        Arrays for rho mixing           7.63 Mb     (   62500,    8)

     Initial potential from superposition of free atoms

     starting charge   36.00000, renormalised to   44.00000
 --- in v_hubbard ---
Hubbard energies (dc, U, total)    9.4813   9.7342   0.2528
 -------
     Number of +U iterations with fixed ns =  0
     Starting occupations:
 --- enter write_ns ---
 LDA+U parameters:
U(  1) =   4.3000   J(  1) =   0.0000   B(  1) =   0.0000
U(  2) =   4.3000   J(  2) =   0.0000   B(  2) =   0.0000
atom    1   Tr[ns(na)] (up, down, total) =   1.00000  5.00000  6.00000
   spin  1
    eigenvalues: 
  0.200  0.200  0.200  0.200  0.200
    eigenvectors:
  1.000  0.000  0.000  0.000  0.000
  0.000  1.000  0.000  0.000  0.000
  0.000  0.000  1.000  0.000  0.000
  0.000  0.000  0.000  1.000  0.000
  0.000  0.000  0.000  0.000  1.000
    occupations:
  0.200  0.000  0.000  0.000  0.000
  0.000  0.200  0.000  0.000  0.000
  0.000  0.000  0.200  0.000  0.000
  0.000  0.000  0.000  0.200  0.000
  0.000  0.000  0.000  0.000  0.200
   spin  2
    eigenvalues: 
  1.000  1.000  1.000  1.000  1.000
    eigenvectors:
  1.000  0.000  0.000  0.000  0.000
  0.000  1.000  0.000  0.000  0.000
  0.000  0.000  1.000  0.000  0.000
  0.000  0.000  0.000  1.000  0.000
  0.000  0.000  0.000  0.000  1.000
    occupations:
  1.000  0.000  0.000  0.000  0.000
  0.000  1.000  0.000  0.000  0.000
  0.000  0.000  1.000  0.000  0.000
  0.000  0.000  0.000  1.000  0.000
  0.000  0.000  0.000  0.000  1.000
atomic mag. moment =    -4.000000
atom    2   Tr[ns(na)] (up, down, total) =   5.00000  1.00000  6.00000
   spin  1
    eigenvalues: 
  1.000  1.000  1.000  1.000  1.000
    eigenvectors:
  1.000  0.000  0.000  0.000  0.000
  0.000  1.000  0.000  0.000  0.000
  0.000  0.000  1.000  0.000  0.000
  0.000  0.000  0.000  1.000  0.000
  0.000  0.000  0.000  0.000  1.000
    occupations:
  1.000  0.000  0.000  0.000  0.000
  0.000  1.000  0.000  0.000  0.000
  0.000  0.000  1.000  0.000  0.000
  0.000  0.000  0.000  1.000  0.000
  0.000  0.000  0.000  0.000  1.000
   spin  2
    eigenvalues: 
  0.200  0.200  0.200  0.200  0.200
    eigenvectors:
  1.000  0.000  0.000  0.000  0.000
  0.000  1.000  0.000  0.000  0.000
  0.000  0.000  1.000  0.000  0.000
  0.000  0.000  0.000  1.000  0.000
  0.000  0.000  0.000  0.000  1.000
    occupations:
  0.200  0.000  0.000  0.000  0.000
  0.000  0.200  0.000  0.000  0.000
  0.000  0.000  0.200  0.000  0.000
  0.000  0.000  0.000  0.200  0.000
  0.000  0.000  0.000  0.000  0.200
atomic mag. moment =     4.000000
N of occupied +U levels =   12.000000
 --- exit write_ns ---
 Atomic wfc used for LDA+U Projector are NOT orthogonalized
     Starting wfc are   26 randomized atomic wfcs +    6 random wfc

     total cpu time spent up to now is        6.2 secs

     per-process dynamical memory:    91.3 Mb

     Self-consistent Calculation

     iteration #  1     ecut=   360.00 Ry     beta=0.30
     Davidson diagonalization with overlap
     ethr =  1.00E-02,  avg # of iterations =  4.4
 --- enter write_ns ---
 LDA+U parameters:
U(  1) =   4.3000   J(  1) =   0.0000   B(  1) =   0.0000
U(  2) =   4.3000   J(  2) =   0.0000   B(  2) =   0.0000
atom    1   Tr[ns(na)] (up, down, total) =   0.26707  2.55999  2.82705
   spin  1
    eigenvalues: 
  0.046  0.046  0.053  0.060  0.060
    eigenvectors:
  0.302  0.689  0.000  0.008  0.001
  0.001  0.005  0.333  0.037  0.623
  0.006  0.000  0.333  0.345  0.316
  0.689  0.302  0.000  0.001  0.008
  0.002  0.004  0.333  0.609  0.052
    occupations:
  0.046 -0.001 -0.001  0.000 -0.001
 -0.001  0.058 -0.002 -0.001  0.002
 -0.001 -0.002  0.058  0.001  0.002
  0.000 -0.001  0.001  0.046 -0.000
 -0.001  0.002  0.002 -0.000  0.058
   spin  2
    eigenvalues: 
  0.435  0.435  0.516  0.587  0.587
    eigenvectors:
  0.251  0.701  0.000  0.039  0.009
  0.008  0.025  0.333  0.003  0.631
  0.032  0.000  0.333  0.437  0.197
  0.701  0.251  0.000  0.009  0.039
  0.009  0.024  0.333  0.511  0.123
    occupations:
  0.443 -0.013 -0.013  0.000 -0.027
 -0.013  0.558 -0.021 -0.023  0.021
 -0.013 -0.021  0.558  0.023  0.021
  0.000 -0.023  0.023  0.443 -0.000
 -0.027  0.021  0.021 -0.000  0.558
atomic mag. moment =    -2.292919
atom    2   Tr[ns(na)] (up, down, total) =   2.55999  0.26707  2.82705
   spin  1
    eigenvalues: 
  0.435  0.435  0.516  0.587  0.587
    eigenvectors:
  0.224  0.728  0.000  0.040  0.009
  0.009  0.024  0.333  0.005  0.629
  0.032  0.000  0.333  0.425  0.210
  0.728  0.224  0.000  0.009  0.040
  0.008  0.025  0.333  0.522  0.113
    occupations:
  0.443 -0.013 -0.013  0.000 -0.027
 -0.013  0.558 -0.021 -0.023  0.021
 -0.013 -0.021  0.558  0.023  0.021
  0.000 -0.023  0.023  0.443 -0.000
 -0.027  0.021  0.021 -0.000  0.558
   spin  2
    eigenvalues: 
  0.046  0.046  0.053  0.060  0.060
    eigenvectors:
  0.300  0.691  0.000  0.008  0.001
  0.001  0.005  0.333  0.032  0.629
  0.006  0.000  0.333  0.358  0.303
  0.691  0.300  0.000  0.001  0.008
  0.002  0.004  0.333  0.602  0.059
    occupations:
  0.046 -0.001 -0.001  0.000 -0.001
 -0.001  0.058 -0.002 -0.001  0.002
 -0.001 -0.002  0.058  0.001  0.002
  0.000 -0.001  0.001  0.046 -0.000
 -0.001  0.002  0.002 -0.000  0.058
atomic mag. moment =     2.292918
N of occupied +U levels =    5.654108
 --- exit write_ns ---
 Modify starting ns matrices according to input values 
 --- enter write_ns ---
 LDA+U parameters:
U(  1) =   4.3000   J(  1) =   0.0000   B(  1) =   0.0000
U(  2) =   4.3000   J(  2) =   0.0000   B(  2) =   0.0000
atom    1   Tr[ns(na)] (up, down, total) =   1.21368  2.55999  3.77367
   spin  1
    eigenvalues: 
  0.046  0.046  0.060  0.060  1.000
    eigenvectors:
  0.257  0.734  0.008  0.001  0.000
  0.001  0.005  0.044  0.617  0.333
  0.006  0.000  0.331  0.330  0.333
  0.734  0.257  0.001  0.008  0.000
  0.002  0.004  0.616  0.045  0.333
    occupations:
  0.046 -0.001 -0.001  0.000 -0.001
 -0.001  0.374  0.313 -0.001 -0.313
 -0.001  0.313  0.374  0.001 -0.313
  0.000 -0.001  0.001  0.046 -0.000
 -0.001 -0.313 -0.313 -0.000  0.374
   spin  2
    eigenvalues: 
  0.435  0.435  0.516  0.587  0.587
    eigenvectors:
  0.283  0.668  0.000  0.038  0.010
  0.007  0.026  0.333  0.001  0.633
  0.032  0.000  0.333  0.451  0.184
  0.668  0.283  0.000  0.010  0.038
  0.010  0.023  0.333  0.499  0.135
    occupations:
  0.443 -0.013 -0.013  0.000 -0.027
 -0.013  0.558 -0.021 -0.023  0.021
 -0.013 -0.021  0.558  0.023  0.021
  0.000 -0.023  0.023  0.443 -0.000
 -0.027  0.021  0.021 -0.000  0.558
atomic mag. moment =    -1.346308
atom    2   Tr[ns(na)] (up, down, total) =   2.55999  1.21368  3.77366
   spin  1
    eigenvalues: 
  0.435  0.435  0.516  0.587  0.587
    eigenvectors:
  0.214  0.737  0.000  0.037  0.012
  0.009  0.023  0.333  0.000  0.634
  0.032  0.000  0.333  0.472  0.163
  0.737  0.214  0.000  0.012  0.037
  0.007  0.025  0.333  0.480  0.154
    occupations:
  0.443 -0.013 -0.013  0.000 -0.027
 -0.013  0.558 -0.021 -0.023  0.021
 -0.013 -0.021  0.558  0.023  0.021
  0.000 -0.023  0.023  0.443 -0.000
 -0.027  0.021  0.021 -0.000  0.558
   spin  2
    eigenvalues: 
  0.046  0.046  0.060  0.060  1.000
    eigenvectors:
  0.451  0.540  0.008  0.001  0.000
  0.001  0.005  0.013  0.648  0.333
  0.006  0.000  0.411  0.249  0.333
  0.540  0.451  0.001  0.008  0.000
  0.003  0.003  0.567  0.093  0.333
    occupations:
  0.046 -0.001 -0.001  0.000 -0.001
 -0.001  0.374  0.313 -0.001 -0.313
 -0.001  0.313  0.374  0.001 -0.313
  0.000 -0.001  0.001  0.046 -0.000
 -0.001 -0.313 -0.313 -0.000  0.374
atomic mag. moment =     1.346307
N of occupied +U levels =    7.547330
 --- exit write_ns ---
 --- in v_hubbard ---
Hubbard energies (dc, U, total)    3.3080   3.7594   0.4514
 -------

     total cpu time spent up to now is       28.7 secs

     total energy              =    -552.36245143 Ry
     Harris-Foulkes estimate   =    -567.52718465 Ry
     estimated scf accuracy    <      39.91845195 Ry

     total magnetization       =     0.00 Bohr mag/cell
     absolute magnetization    =     5.75 Bohr mag/cell

     iteration #  2     ecut=   360.00 Ry     beta=0.30
     Davidson diagonalization with overlap
     ethr =  1.00E-02,  avg # of iterations =  4.0
 --- enter write_ns ---
 LDA+U parameters:
U(  1) =   4.3000   J(  1) =   0.0000   B(  1) =   0.0000
U(  2) =   4.3000   J(  2) =   0.0000   B(  2) =   0.0000
atom    1   Tr[ns(na)] (up, down, total) =   1.50654  4.87653  6.38307
   spin  1
    eigenvalues: 
  0.088  0.088  0.212  0.212  0.905
    eigenvectors:
  0.000  0.000  0.304  0.696  0.000
  0.087  0.580  0.000  0.000  0.333
  0.262  0.405  0.000  0.000  0.333
  0.000  0.000  0.696  0.304  0.000
  0.651  0.016  0.000  0.000  0.333
    occupations:
  0.212 -0.001 -0.001  0.000 -0.002
 -0.001  0.361  0.272 -0.001 -0.272
 -0.001  0.272  0.361  0.001 -0.272
  0.000 -0.001  0.001  0.212 -0.000
 -0.002 -0.272 -0.272 -0.000  0.361
   spin  2
    eigenvalues: 
  0.973  0.973  0.973  0.979  0.979
    eigenvectors:
  0.000  0.023  0.000  0.284  0.692
  0.333  0.219  0.432  0.003  0.012
  0.333  0.112  0.539  0.016  0.000
  0.000  0.000  0.023  0.692  0.284
  0.333  0.645  0.006  0.005  0.011
    occupations:
  0.979 -0.000 -0.000  0.000 -0.001
 -0.000  0.973 -0.000 -0.001  0.000
 -0.000 -0.000  0.973  0.001  0.000
  0.000 -0.001  0.001  0.979 -0.000
 -0.001  0.000  0.000 -0.000  0.973
atomic mag. moment =    -3.369983
atom    2   Tr[ns(na)] (up, down, total) =   4.87653  1.50654  6.38307
   spin  1
    eigenvalues: 
  0.973  0.973  0.973  0.979  0.979
    eigenvectors:
  0.000  0.023  0.000  0.280  0.696
  0.333  0.230  0.421  0.003  0.012
  0.333  0.104  0.547  0.016  0.000
  0.000  0.000  0.023  0.696  0.280
  0.333  0.643  0.008  0.004  0.011
    occupations:
  0.979 -0.000 -0.000  0.000 -0.001
 -0.000  0.973 -0.000 -0.001  0.000
 -0.000 -0.000  0.973  0.001  0.000
  0.000 -0.001  0.001  0.979 -0.000
 -0.001  0.000  0.000 -0.000  0.973
   spin  2
    eigenvalues: 
  0.088  0.088  0.212  0.212  0.905
    eigenvectors:
  0.000  0.000  0.287  0.712  0.000
  0.120  0.546  0.000  0.000  0.333
  0.218  0.449  0.000  0.000  0.333
  0.000  0.000  0.712  0.287  0.000
  0.662  0.005  0.000  0.000  0.333
    occupations:
  0.212 -0.001 -0.001  0.000 -0.002
 -0.001  0.361  0.272 -0.001 -0.272
 -0.001  0.272  0.361  0.001 -0.272
  0.000 -0.001  0.001  0.212 -0.000
 -0.002 -0.272 -0.272 -0.000  0.361
atomic mag. moment =     3.369983
N of occupied +U levels =   12.766137
 --- exit write_ns ---
 --- in v_hubbard ---
Hubbard energies (dc, U, total)    4.9111   5.3730   0.4620
 -------

     total cpu time spent up to now is       49.8 secs

     total energy              =    -558.00786383 Ry
     Harris-Foulkes estimate   =    -558.95433627 Ry
     estimated scf accuracy    <       4.33107456 Ry

     total magnetization       =     0.00 Bohr mag/cell
     absolute magnetization    =     7.08 Bohr mag/cell

     iteration #  3     ecut=   360.00 Ry     beta=0.30
     Davidson diagonalization with overlap
     ethr =  9.84E-03,  avg # of iterations =  1.9
 --- enter write_ns ---
 LDA+U parameters:
U(  1) =   4.3000   J(  1) =   0.0000   B(  1) =   0.0000
U(  2) =   4.3000   J(  2) =   0.0000   B(  2) =   0.0000
atom    1   Tr[ns(na)] (up, down, total) =   1.08402  4.82220  5.90622
   spin  1
    eigenvalues: 
  0.028  0.028  0.076  0.076  0.875
    eigenvectors:
  0.000  0.000  0.260  0.740  0.000
  0.232  0.435  0.000  0.000  0.333
  0.659  0.008  0.000  0.000  0.333
  0.000  0.000  0.740  0.260  0.000
  0.109  0.557  0.000  0.000  0.333
    occupations:
  0.076  0.000  0.000  0.000  0.001
  0.000  0.311  0.282  0.001 -0.282
  0.000  0.282  0.311 -0.001 -0.282
  0.000  0.001 -0.001  0.076 -0.000
  0.001 -0.282 -0.282 -0.000  0.311
   spin  2
    eigenvalues: 
  0.953  0.960  0.960  0.974  0.974
    eigenvectors:
  0.000  0.000  0.000  0.270  0.730
  0.333  0.152  0.514  0.000  0.000
  0.333  0.182  0.485  0.000  0.000
  0.000  0.000  0.000  0.730  0.270
  0.333  0.666  0.000  0.000  0.000
    occupations:
  0.974 -0.000 -0.000  0.000 -0.000
 -0.000  0.958 -0.002 -0.000  0.002
 -0.000 -0.002  0.958  0.000  0.002
  0.000 -0.000  0.000  0.974 -0.000
 -0.000  0.002  0.002 -0.000  0.958
atomic mag. moment =    -3.738173
atom    2   Tr[ns(na)] (up, down, total) =   4.82220  1.08403  5.90622
   spin  1
    eigenvalues: 
  0.953  0.960  0.960  0.974  0.974
    eigenvectors:
  0.000  0.000  0.000  0.269  0.730
  0.333  0.155  0.511  0.000  0.000
  0.333  0.178  0.488  0.000  0.000
  0.000  0.000  0.000  0.730  0.269
  0.333  0.666  0.000  0.000  0.000
    occupations:
  0.974 -0.000 -0.000  0.000 -0.000
 -0.000  0.958 -0.002 -0.000  0.002
 -0.000 -0.002  0.958  0.000  0.002
  0.000 -0.000  0.000  0.974 -0.000
 -0.000  0.002  0.002 -0.000  0.958
   spin  2
    eigenvalues: 
  0.028  0.028  0.076  0.076  0.875
    eigenvectors:
  0.001  0.000  0.382  0.618  0.000
  0.040  0.626  0.000  0.000  0.333
  0.342  0.324  0.000  0.000  0.333
  0.000  0.001  0.618  0.382  0.000
  0.617  0.049  0.000  0.000  0.333
    occupations:
  0.076  0.000  0.000  0.000  0.001
  0.000  0.311  0.282  0.001 -0.282
  0.000  0.282  0.311 -0.001 -0.282
  0.000  0.001 -0.001  0.076 -0.000
  0.001 -0.282 -0.282 -0.000  0.311
atomic mag. moment =     3.738173
N of occupied +U levels =   11.812446
 --- exit write_ns ---
 --- in v_hubbard ---
Hubbard energies (dc, U, total)    6.3320   6.7237   0.3917
 -------

     total cpu time spent up to now is       62.9 secs

     total energy              =    -558.75928156 Ry
     Harris-Foulkes estimate   =    -558.58754445 Ry
     estimated scf accuracy    <       0.61354495 Ry

     total magnetization       =     0.00 Bohr mag/cell
     absolute magnetization    =     7.69 Bohr mag/cell

     iteration #  4     ecut=   360.00 Ry     beta=0.30
     Davidson diagonalization with overlap
     ethr =  1.39E-03,  avg # of iterations =  1.0
 --- enter write_ns ---
 LDA+U parameters:
U(  1) =   4.3000   J(  1) =   0.0000   B(  1) =   0.0000
U(  2) =   4.3000   J(  2) =   0.0000   B(  2) =   0.0000
atom    1   Tr[ns(na)] (up, down, total) =   1.12650  4.84879  5.97529
   spin  1
    eigenvalues: 
  0.027  0.027  0.083  0.083  0.905
    eigenvectors:
  0.002  0.002  0.258  0.738  0.000
  0.031  0.633  0.001  0.002  0.333
  0.604  0.060  0.002  0.000  0.333
  0.002  0.002  0.738  0.258  0.000
  0.361  0.303  0.001  0.002  0.333
    occupations:
  0.083  0.001  0.001  0.000  0.003
  0.001  0.320  0.292  0.002 -0.292
  0.001  0.292  0.320 -0.002 -0.292
  0.000  0.002 -0.002  0.083 -0.000
  0.003 -0.292 -0.292 -0.000  0.320
   spin  2
    eigenvalues: 
  0.959  0.967  0.967  0.978  0.978
    eigenvectors:
  0.000  0.000  0.000  0.291  0.709
  0.333  0.143  0.524  0.000  0.000
  0.333  0.192  0.475  0.000  0.000
  0.000  0.000  0.000  0.709  0.291
  0.333  0.665  0.001  0.000  0.000
    occupations:
  0.978  0.000  0.000  0.000  0.000
  0.000  0.964 -0.003  0.000  0.003
  0.000 -0.003  0.964 -0.000  0.003
  0.000  0.000 -0.000  0.978 -0.000
  0.000  0.003  0.003 -0.000  0.964
atomic mag. moment =    -3.722294
atom    2   Tr[ns(na)] (up, down, total) =   4.84879  1.12650  5.97529
   spin  1
    eigenvalues: 
  0.959  0.967  0.967  0.978  0.978
    eigenvectors:
  0.000  0.000  0.000  0.306  0.694
  0.333  0.125  0.541  0.000  0.000
  0.333  0.212  0.455  0.000  0.000
  0.000  0.000  0.000  0.694  0.306
  0.333  0.663  0.004  0.000  0.000
    occupations:
  0.978  0.000  0.000  0.000  0.000
  0.000  0.964 -0.003  0.000  0.003
  0.000 -0.003  0.964 -0.000  0.003
  0.000  0.000 -0.000  0.978 -0.000
  0.000  0.003  0.003 -0.000  0.964
   spin  2
    eigenvalues: 
  0.027  0.027  0.083  0.083  0.905
    eigenvectors:
  0.002  0.002  0.247  0.750  0.000
  0.042  0.623  0.001  0.002  0.333
  0.617  0.047  0.002  0.000  0.333
  0.002  0.002  0.750  0.247  0.000
  0.338  0.327  0.001  0.002  0.333
    occupations:
  0.083  0.001  0.001  0.000  0.003
  0.001  0.320  0.292  0.002 -0.292
  0.001  0.292  0.320 -0.002 -0.292
  0.000  0.002 -0.002  0.083 -0.000
  0.003 -0.292 -0.292 -0.000  0.320
atomic mag. moment =     3.722294
N of occupied +U levels =   11.950582
 --- exit write_ns ---
 --- in v_hubbard ---
Hubbard energies (dc, U, total)    9.2840   9.4360   0.1520
 -------

     total cpu time spent up to now is       75.3 secs

     total energy              =    -558.92388881 Ry
     Harris-Foulkes estimate   =    -558.78117831 Ry
     estimated scf accuracy    <       0.23047805 Ry

     total magnetization       =     0.00 Bohr mag/cell
     absolute magnetization    =     7.66 Bohr mag/cell

     iteration #  5     ecut=   360.00 Ry     beta=0.30
     Davidson diagonalization with overlap
     ethr =  5.24E-04,  avg # of iterations =  2.0
 --- enter write_ns ---
 LDA+U parameters:
U(  1) =   4.3000   J(  1) =   0.0000   B(  1) =   0.0000
U(  2) =   4.3000   J(  2) =   0.0000   B(  2) =   0.0000
atom    1   Tr[ns(na)] (up, down, total) =   1.18288  4.85854  6.04142
   spin  1
    eigenvalues: 
  0.029  0.029  0.098  0.098  0.927
    eigenvectors:
  0.010  0.004  0.268  0.718  0.000
  0.002  0.655  0.002  0.007  0.333
  0.527  0.131  0.009  0.000  0.333
  0.004  0.010  0.718  0.268  0.000
  0.457  0.200  0.003  0.007  0.333
    occupations:
  0.097  0.003  0.003  0.000  0.007
  0.003  0.329  0.299  0.006 -0.299
  0.003  0.299  0.329 -0.006 -0.299
  0.000  0.006 -0.006  0.097 -0.000
  0.007 -0.299 -0.299 -0.000  0.329
   spin  2
    eigenvalues: 
  0.958  0.970  0.970  0.980  0.980
    eigenvectors:
  0.000  0.005  0.000  0.289  0.706
  0.333  0.082  0.581  0.001  0.003
  0.333  0.268  0.395  0.004  0.000
  0.000  0.000  0.005  0.706  0.289
  0.333  0.645  0.018  0.001  0.003
    occupations:
  0.980  0.000  0.000  0.000  0.001
  0.000  0.966 -0.004  0.001  0.004
  0.000 -0.004  0.966 -0.001  0.004
  0.000  0.001 -0.001  0.980 -0.000
  0.001  0.004  0.004 -0.000  0.966
atomic mag. moment =    -3.675664
atom    2   Tr[ns(na)] (up, down, total) =   4.85854  1.18288  6.04142
   spin  1
    eigenvalues: 
  0.958  0.970  0.970  0.980  0.980
    eigenvectors:
  0.000  0.005  0.000  0.333  0.662
  0.333  0.084  0.579  0.001  0.003
  0.333  0.264  0.399  0.004  0.000
  0.000  0.000  0.005  0.662  0.333
  0.333  0.646  0.017  0.001  0.002
    occupations:
  0.980  0.000  0.000  0.000  0.001
  0.000  0.966 -0.004  0.001  0.004
  0.000 -0.004  0.966 -0.001  0.004
  0.000  0.001 -0.001  0.980 -0.000
  0.001  0.004  0.004 -0.000  0.966
   spin  2
    eigenvalues: 
  0.029  0.029  0.098  0.098  0.927
    eigenvectors:
  0.003  0.011  0.250  0.737  0.000
  0.213  0.445  0.002  0.007  0.333
  0.653  0.004  0.009  0.000  0.333
  0.011  0.003  0.737  0.250  0.000
  0.120  0.537  0.002  0.007  0.333
    occupations:
  0.097  0.003  0.003  0.000  0.007
  0.003  0.329  0.299  0.006 -0.299
  0.003  0.299  0.329 -0.006 -0.299
  0.000  0.006 -0.006  0.097 -0.000
  0.007 -0.299 -0.299 -0.000  0.329
atomic mag. moment =     3.675663
N of occupied +U levels =   12.082835
 --- exit write_ns ---
 --- in v_hubbard ---
Hubbard energies (dc, U, total)    9.5252   9.6602   0.1350
 -------

     total cpu time spent up to now is       88.2 secs

     total energy              =    -558.93062199 Ry
     Harris-Foulkes estimate   =    -558.93683018 Ry
     estimated scf accuracy    <       0.01637061 Ry

     total magnetization       =     0.00 Bohr mag/cell
     absolute magnetization    =     7.57 Bohr mag/cell

     iteration #  6     ecut=   360.00 Ry     beta=0.30
     Davidson diagonalization with overlap
     ethr =  3.72E-05,  avg # of iterations =  2.1
 --- enter write_ns ---
 LDA+U parameters:
U(  1) =   4.3000   J(  1) =   0.0000   B(  1) =   0.0000
U(  2) =   4.3000   J(  2) =   0.0000   B(  2) =   0.0000
atom    1   Tr[ns(na)] (up, down, total) =   1.16031  4.84302  6.00333
   spin  1
    eigenvalues: 
  0.028  0.028  0.092  0.092  0.922
    eigenvectors:
  0.011  0.003  0.227  0.760  0.000
  0.002  0.655  0.002  0.007  0.333
  0.458  0.200  0.009  0.000  0.333
  0.003  0.011  0.760  0.227  0.000
  0.526  0.131  0.002  0.007  0.333
    occupations:
  0.091  0.003  0.003  0.000  0.006
  0.003  0.326  0.298  0.005 -0.298
  0.003  0.298  0.326 -0.005 -0.298
  0.000  0.005 -0.005  0.091 -0.000
  0.006 -0.298 -0.298 -0.000  0.326
   spin  2
    eigenvalues: 
  0.953  0.967  0.967  0.978  0.978
    eigenvectors:
  0.000  0.004  0.000  0.281  0.715
  0.333  0.109  0.555  0.001  0.002
  0.333  0.230  0.434  0.003  0.000
  0.000  0.000  0.004  0.715  0.281
  0.333  0.657  0.007  0.001  0.002
    occupations:
  0.978  0.000  0.000  0.000  0.001
  0.000  0.962 -0.005  0.000  0.005
  0.000 -0.005  0.962 -0.000  0.005
  0.000  0.000 -0.000  0.978 -0.000
  0.001  0.005  0.005 -0.000  0.962
atomic mag. moment =    -3.682714
atom    2   Tr[ns(na)] (up, down, total) =   4.84302  1.16031  6.00333
   spin  1
    eigenvalues: 
  0.953  0.967  0.967  0.978  0.978
    eigenvectors:
  0.000  0.004  0.000  0.278  0.719
  0.333  0.097  0.567  0.001  0.002
  0.333  0.247  0.417  0.003  0.000
  0.000  0.000  0.004  0.719  0.278
  0.333  0.653  0.012  0.001  0.002
    occupations:
  0.978  0.000  0.000  0.000  0.001
  0.000  0.962 -0.005  0.000  0.005
  0.000 -0.005  0.962 -0.000  0.005
  0.000  0.000 -0.000  0.978 -0.000
  0.001  0.005  0.005 -0.000  0.962
   spin  2
    eigenvalues: 
  0.028  0.028  0.092  0.092  0.922
    eigenvectors:
  0.007  0.006  0.204  0.783  0.000
  0.031  0.627  0.003  0.006  0.333
  0.598  0.059  0.009  0.000  0.333
  0.006  0.007  0.783  0.204  0.000
  0.357  0.301  0.002  0.007  0.333
    occupations:
  0.091  0.003  0.003  0.000  0.006
  0.003  0.326  0.298  0.005 -0.298
  0.003  0.298  0.326 -0.005 -0.298
  0.000  0.005 -0.005  0.091 -0.000
  0.006 -0.298 -0.298 -0.000  0.326
atomic mag. moment =     3.682714
N of occupied +U levels =   12.006662
 --- exit write_ns ---
 --- in v_hubbard ---
Hubbard energies (dc, U, total)    9.5630   9.6962   0.1332
 -------

     total cpu time spent up to now is      102.7 secs

     total energy              =    -558.93402024 Ry
     Harris-Foulkes estimate   =    -558.93383124 Ry
     estimated scf accuracy    <       0.00057877 Ry

     total magnetization       =     0.00 Bohr mag/cell
     absolute magnetization    =     7.59 Bohr mag/cell

     iteration #  7     ecut=   360.00 Ry     beta=0.30
     Davidson diagonalization with overlap
     ethr =  1.32E-06,  avg # of iterations =  2.4
 --- enter write_ns ---
 LDA+U parameters:
U(  1) =   4.3000   J(  1) =   0.0000   B(  1) =   0.0000
U(  2) =   4.3000   J(  2) =   0.0000   B(  2) =   0.0000
atom    1   Tr[ns(na)] (up, down, total) =   1.15972  4.84134  6.00107
   spin  1
    eigenvalues: 
  0.027  0.027  0.091  0.091  0.923
    eigenvectors:
  0.005  0.008  0.270  0.717  0.000
  0.093  0.564  0.002  0.007  0.333
  0.645  0.012  0.009  0.000  0.333
  0.008  0.005  0.717  0.270  0.000
  0.248  0.410  0.002  0.007  0.333
    occupations:
  0.090  0.003  0.003  0.000  0.006
  0.003  0.326  0.298  0.005 -0.298
  0.003  0.298  0.326 -0.005 -0.298
  0.000  0.005 -0.005  0.090 -0.000
  0.006 -0.298 -0.298 -0.000  0.326
   spin  2
    eigenvalues: 
  0.952  0.967  0.967  0.978  0.978
    eigenvectors:
  0.000  0.003  0.000  0.237  0.760
  0.333  0.101  0.564  0.001  0.002
  0.333  0.242  0.423  0.002  0.000
  0.000  0.000  0.003  0.760  0.237
  0.333  0.654  0.010  0.001  0.002
    occupations:
  0.978  0.000  0.000  0.000  0.001
  0.000  0.962 -0.005  0.000  0.005
  0.000 -0.005  0.962 -0.000  0.005
  0.000  0.000 -0.000  0.978 -0.000
  0.001  0.005  0.005 -0.000  0.962
atomic mag. moment =    -3.681620
atom    2   Tr[ns(na)] (up, down, total) =   4.84134  1.15973  6.00107
   spin  1
    eigenvalues: 
  0.952  0.967  0.967  0.978  0.978
    eigenvectors:
  0.000  0.003  0.000  0.252  0.745
  0.333  0.095  0.569  0.001  0.002
  0.333  0.249  0.416  0.002  0.000
  0.000  0.000  0.003  0.745  0.252
  0.333  0.652  0.012  0.001  0.002
    occupations:
  0.978  0.000  0.000  0.000  0.001
  0.000  0.962 -0.005  0.000  0.005
  0.000 -0.005  0.962 -0.000  0.005
  0.000  0.000 -0.000  0.978 -0.000
  0.001  0.005  0.005 -0.000  0.962
   spin  2
    eigenvalues: 
  0.027  0.027  0.091  0.091  0.923
    eigenvectors:
  0.008  0.006  0.223  0.763  0.000
  0.018  0.640  0.002  0.007  0.333
  0.577  0.080  0.009  0.000  0.333
  0.006  0.008  0.763  0.223  0.000
  0.391  0.267  0.002  0.007  0.333
    occupations:
  0.090  0.003  0.003  0.000  0.006
  0.003  0.326  0.298  0.005 -0.298
  0.003  0.298  0.326 -0.005 -0.298
  0.000  0.005 -0.005  0.090 -0.000
  0.006 -0.298 -0.298 -0.000  0.326
atomic mag. moment =     3.681619
N of occupied +U levels =   12.002139
 --- exit write_ns ---
 --- in v_hubbard ---
Hubbard energies (dc, U, total)    9.5140   9.6529   0.1389
 -------

     total cpu time spent up to now is      116.2 secs

     total energy              =    -558.93404625 Ry
     Harris-Foulkes estimate   =    -558.93407655 Ry
     estimated scf accuracy    <       0.00041456 Ry

     total magnetization       =     0.00 Bohr mag/cell
     absolute magnetization    =     7.59 Bohr mag/cell

     iteration #  8     ecut=   360.00 Ry     beta=0.30
     Davidson diagonalization with overlap
     ethr =  9.42E-07,  avg # of iterations =  2.0
 --- enter write_ns ---
 LDA+U parameters:
U(  1) =   4.3000   J(  1) =   0.0000   B(  1) =   0.0000
U(  2) =   4.3000   J(  2) =   0.0000   B(  2) =   0.0000
atom    1   Tr[ns(na)] (up, down, total) =   1.16382  4.84243  6.00626
   spin  1
    eigenvalues: 
  0.027  0.027  0.092  0.092  0.925
    eigenvectors:
  0.005  0.009  0.322  0.664  0.000
  0.106  0.552  0.002  0.007  0.333
  0.649  0.008  0.009  0.000  0.333
  0.009  0.005  0.664  0.322  0.000
  0.231  0.426  0.003  0.006  0.333
    occupations:
  0.091  0.003  0.003  0.000  0.006
  0.003  0.327  0.299  0.005 -0.299
  0.003  0.299  0.327 -0.005 -0.299
  0.000  0.005 -0.005  0.091 -0.000
  0.006 -0.299 -0.299 -0.000  0.327
   spin  2
    eigenvalues: 
  0.952  0.967  0.967  0.978  0.978
    eigenvectors:
  0.000  0.003  0.000  0.273  0.724
  0.333  0.104  0.561  0.000  0.001
  0.333  0.238  0.427  0.002  0.000
  0.000  0.000  0.003  0.724  0.273
  0.333  0.656  0.009  0.001  0.001
    occupations:
  0.978  0.000  0.000  0.000  0.000
  0.000  0.962 -0.005  0.000  0.005
  0.000 -0.005  0.962 -0.000  0.005
  0.000  0.000 -0.000  0.978 -0.000
  0.000  0.005  0.005 -0.000  0.962
atomic mag. moment =    -3.678610
atom    2   Tr[ns(na)] (up, down, total) =   4.84243  1.16383  6.00626
   spin  1
    eigenvalues: 
  0.952  0.967  0.967  0.978  0.978
    eigenvectors:
  0.000  0.003  0.000  0.289  0.708
  0.333  0.099  0.566  0.000  0.001
  0.333  0.244  0.421  0.002  0.000
  0.000  0.000  0.003  0.708  0.289
  0.333  0.654  0.011  0.001  0.001
    occupations:
  0.978  0.000  0.000  0.000  0.000
  0.000  0.962 -0.005  0.000  0.005
  0.000 -0.005  0.962 -0.000  0.005
  0.000  0.000 -0.000  0.978 -0.000
  0.000  0.005  0.005 -0.000  0.962
   spin  2
    eigenvalues: 
  0.027  0.027  0.092  0.092  0.925
    eigenvectors:
  0.004  0.010  0.304  0.682  0.000
  0.141  0.516  0.002  0.007  0.333
  0.656  0.001  0.009  0.000  0.333
  0.010  0.004  0.682  0.304  0.000
  0.189  0.469  0.003  0.006  0.333
    occupations:
  0.091  0.003  0.003  0.000  0.006
  0.003  0.327  0.299  0.005 -0.299
  0.003  0.299  0.327 -0.005 -0.299
  0.000  0.005 -0.005  0.091 -0.000
  0.006 -0.299 -0.299 -0.000  0.327
atomic mag. moment =     3.678609
N of occupied +U levels =   12.012518
 --- exit write_ns ---
 --- in v_hubbard ---
Hubbard energies (dc, U, total)    9.5110   9.6502   0.1393
 -------

     total cpu time spent up to now is      129.5 secs

     total energy              =    -558.93411612 Ry
     Harris-Foulkes estimate   =    -558.93411134 Ry
     estimated scf accuracy    <       0.00000976 Ry

     total magnetization       =     0.00 Bohr mag/cell
     absolute magnetization    =     7.58 Bohr mag/cell

     iteration #  9     ecut=   360.00 Ry     beta=0.30
     Davidson diagonalization with overlap
     ethr =  2.22E-08,  avg # of iterations =  2.0
 --- enter write_ns ---
 LDA+U parameters:
U(  1) =   4.3000   J(  1) =   0.0000   B(  1) =   0.0000
U(  2) =   4.3000   J(  2) =   0.0000   B(  2) =   0.0000
atom    1   Tr[ns(na)] (up, down, total) =   1.16397  4.84220  6.00616
   spin  1
    eigenvalues: 
  0.027  0.027  0.092  0.092  0.925
    eigenvectors:
  0.002  0.011  0.228  0.758  0.000
  0.223  0.434  0.002  0.007  0.333
  0.651  0.006  0.009  0.000  0.333
  0.011  0.002  0.758  0.228  0.000
  0.112  0.546  0.002  0.007  0.333
    occupations:
  0.091  0.003  0.003  0.000  0.006
  0.003  0.327  0.299  0.005 -0.299
  0.003  0.299  0.327 -0.005 -0.299
  0.000  0.005 -0.005  0.091 -0.000
  0.006 -0.299 -0.299 -0.000  0.327
   spin  2
    eigenvalues: 
  0.952  0.967  0.967  0.978  0.978
    eigenvectors:
  0.000  0.003  0.000  0.264  0.733
  0.333  0.115  0.549  0.000  0.001
  0.333  0.223  0.442  0.002  0.000
  0.000  0.000  0.003  0.733  0.264
  0.333  0.659  0.006  0.000  0.001
    occupations:
  0.978  0.000  0.000  0.000  0.000
  0.000  0.962 -0.005  0.000  0.005
  0.000 -0.005  0.962 -0.000  0.005
  0.000  0.000 -0.000  0.978 -0.000
  0.000  0.005  0.005 -0.000  0.962
atomic mag. moment =    -3.678229
atom    2   Tr[ns(na)] (up, down, total) =   4.84220  1.16397  6.00617
   spin  1
    eigenvalues: 
  0.952  0.967  0.967  0.978  0.978
    eigenvectors:
  0.000  0.003  0.000  0.307  0.690
  0.333  0.108  0.557  0.000  0.002
  0.333  0.233  0.432  0.002  0.000
  0.000  0.000  0.003  0.690  0.307
  0.333  0.657  0.008  0.001  0.001
    occupations:
  0.978  0.000  0.000  0.000  0.000
  0.000  0.962 -0.005  0.000  0.005
  0.000 -0.005  0.962 -0.000  0.005
  0.000  0.000 -0.000  0.978 -0.000
  0.000  0.005  0.005 -0.000  0.962
   spin  2
    eigenvalues: 
  0.027  0.027  0.092  0.092  0.925
    eigenvectors:
  0.002  0.012  0.282  0.704  0.000
  0.228  0.430  0.002  0.007  0.333
  0.650  0.007  0.009  0.000  0.333
  0.012  0.002  0.704  0.282  0.000
  0.108  0.549  0.003  0.007  0.333
    occupations:
  0.091  0.003  0.003  0.000  0.006
  0.003  0.327  0.299  0.005 -0.299
  0.003  0.299  0.327 -0.005 -0.299
  0.000  0.005 -0.005  0.091 -0.000
  0.006 -0.299 -0.299 -0.000  0.327
atomic mag. moment =     3.678229
N of occupied +U levels =   12.012330
 --- exit write_ns ---
 --- in v_hubbard ---
Hubbard energies (dc, U, total)    9.5039   9.6438   0.1399
 -------

     total cpu time spent up to now is      143.8 secs

     total energy              =    -558.93411786 Ry
     Harris-Foulkes estimate   =    -558.93411754 Ry
     estimated scf accuracy    <       0.00000320 Ry

     total magnetization       =    -0.00 Bohr mag/cell
     absolute magnetization    =     7.58 Bohr mag/cell

     iteration # 10     ecut=   360.00 Ry     beta=0.30
     Davidson diagonalization with overlap
     ethr =  7.27E-09,  avg # of iterations =  2.0
 --- enter write_ns ---
 LDA+U parameters:
U(  1) =   4.3000   J(  1) =   0.0000   B(  1) =   0.0000
U(  2) =   4.3000   J(  2) =   0.0000   B(  2) =   0.0000
atom    1   Tr[ns(na)] (up, down, total) =   1.16417  4.84225  6.00642
   spin  1
    eigenvalues: 
  0.027  0.027  0.092  0.092  0.925
    eigenvectors:
  0.005  0.009  0.276  0.710  0.000
  0.106  0.551  0.002  0.007  0.333
  0.649  0.008  0.009  0.000  0.333
  0.009  0.005  0.710  0.276  0.000
  0.231  0.427  0.003  0.007  0.333
    occupations:
  0.091  0.003  0.003  0.000  0.006
  0.003  0.327  0.299  0.005 -0.299
  0.003  0.299  0.327 -0.005 -0.299
  0.000  0.005 -0.005  0.091 -0.000
  0.006 -0.299 -0.299 -0.000  0.327
   spin  2
    eigenvalues: 
  0.952  0.967  0.967  0.978  0.978
    eigenvectors:
  0.000  0.003  0.000  0.309  0.688
  0.333  0.107  0.558  0.000  0.002
  0.333  0.233  0.432  0.002  0.000
  0.000  0.000  0.003  0.688  0.309
  0.333  0.657  0.008  0.001  0.001
    occupations:
  0.978  0.000  0.000  0.000  0.001
  0.000  0.962 -0.005  0.000  0.005
  0.000 -0.005  0.962 -0.000  0.005
  0.000  0.000 -0.000  0.978 -0.000
  0.001  0.005  0.005 -0.000  0.962
atomic mag. moment =    -3.678076
atom    2   Tr[ns(na)] (up, down, total) =   4.84225  1.16417  6.00642
   spin  1
    eigenvalues: 
  0.952  0.967  0.967  0.978  0.978
    eigenvectors:
  0.000  0.003  0.000  0.268  0.729
  0.333  0.096  0.569  0.000  0.001
  0.333  0.248  0.416  0.002  0.000
  0.000  0.000  0.003  0.729  0.268
  0.333  0.653  0.012  0.001  0.001
    occupations:
  0.978  0.000  0.000  0.000  0.001
  0.000  0.962 -0.005  0.000  0.005
  0.000 -0.005  0.962 -0.000  0.005
  0.000  0.000 -0.000  0.978 -0.000
  0.001  0.005  0.005 -0.000  0.962
   spin  2
    eigenvalues: 
  0.027  0.027  0.092  0.092  0.925
    eigenvectors:
  0.007  0.006  0.281  0.705  0.000
  0.034  0.623  0.002  0.007  0.333
  0.603  0.055  0.009  0.000  0.333
  0.006  0.007  0.705  0.281  0.000
  0.349  0.308  0.003  0.007  0.333
    occupations:
  0.091  0.003  0.003  0.000  0.006
  0.003  0.327  0.299  0.005 -0.299
  0.003  0.299  0.327 -0.005 -0.299
  0.000  0.005 -0.005  0.091 -0.000
  0.006 -0.299 -0.299 -0.000  0.327
atomic mag. moment =     3.678075
N of occupied +U levels =   12.012844
 --- exit write_ns ---
 --- in v_hubbard ---
Hubbard energies (dc, U, total)    9.5039   9.6437   0.1399
 -------

     total cpu time spent up to now is      157.7 secs

     total energy              =    -558.93411841 Ry
     Harris-Foulkes estimate   =    -558.93411839 Ry
     estimated scf accuracy    <       0.00000005 Ry

     total magnetization       =    -0.00 Bohr mag/cell
     absolute magnetization    =     7.58 Bohr mag/cell

     iteration # 11     ecut=   360.00 Ry     beta=0.30
     Davidson diagonalization with overlap
     ethr =  1.14E-10,  avg # of iterations =  2.8
 --- enter write_ns ---
 LDA+U parameters:
U(  1) =   4.3000   J(  1) =   0.0000   B(  1) =   0.0000
U(  2) =   4.3000   J(  2) =   0.0000   B(  2) =   0.0000
atom    1   Tr[ns(na)] (up, down, total) =   1.16421  4.84225  6.00646
   spin  1
    eigenvalues: 
  0.027  0.027  0.092  0.092  0.925
    eigenvectors:
  0.004  0.009  0.262  0.724  0.000
  0.121  0.536  0.002  0.007  0.333
  0.653  0.004  0.009  0.000  0.333
  0.009  0.004  0.724  0.262  0.000
  0.211  0.446  0.002  0.007  0.333
    occupations:
  0.091  0.003  0.003  0.000  0.006
  0.003  0.327  0.299  0.005 -0.299
  0.003  0.299  0.327 -0.005 -0.299
  0.000  0.005 -0.005  0.091 -0.000
  0.006 -0.299 -0.299 -0.000  0.327
   spin  2
    eigenvalues: 
  0.952  0.967  0.967  0.978  0.978
    eigenvectors:
  0.000  0.003  0.000  0.246  0.751
  0.333  0.103  0.561  0.000  0.001
  0.333  0.238  0.426  0.002  0.000
  0.000  0.000  0.003  0.751  0.246
  0.333  0.655  0.009  0.000  0.001
    occupations:
  0.978  0.000  0.000  0.000  0.001
  0.000  0.962 -0.005  0.000  0.005
  0.000 -0.005  0.962 -0.000  0.005
  0.000  0.000 -0.000  0.978 -0.000
  0.001  0.005  0.005 -0.000  0.962
atomic mag. moment =    -3.678034
atom    2   Tr[ns(na)] (up, down, total) =   4.84225  1.16421  6.00646
   spin  1
    eigenvalues: 
  0.952  0.967  0.967  0.978  0.978
    eigenvectors:
  0.000  0.003  0.000  0.277  0.720
  0.333  0.098  0.567  0.000  0.001
  0.333  0.246  0.419  0.002  0.000
  0.000  0.000  0.003  0.720  0.277
  0.333  0.654  0.011  0.001  0.001
    occupations:
  0.978  0.000  0.000  0.000  0.001
  0.000  0.962 -0.005  0.000  0.005
  0.000 -0.005  0.962 -0.000  0.005
  0.000  0.000 -0.000  0.978 -0.000
  0.001  0.005  0.005 -0.000  0.962
   spin  2
    eigenvalues: 
  0.027  0.027  0.092  0.092  0.925
    eigenvectors:
  0.006  0.008  0.338  0.649  0.000
  0.067  0.590  0.002  0.008  0.333
  0.632  0.026  0.009  0.000  0.333
  0.008  0.006  0.649  0.338  0.000
  0.287  0.370  0.003  0.006  0.333
    occupations:
  0.091  0.003  0.003  0.000  0.006
  0.003  0.327  0.299  0.005 -0.299
  0.003  0.299  0.327 -0.005 -0.299
  0.000  0.005 -0.005  0.091 -0.000
  0.006 -0.299 -0.299 -0.000  0.327
atomic mag. moment =     3.678034
N of occupied +U levels =   12.012926
 --- exit write_ns ---
 --- in v_hubbard ---
Hubbard energies (dc, U, total)    9.5038   9.6436   0.1398
 -------

     total cpu time spent up to now is      172.6 secs

     total energy              =    -558.93411843 Ry
     Harris-Foulkes estimate   =    -558.93411842 Ry
     estimated scf accuracy    <       0.00000001 Ry

     total magnetization       =     0.00 Bohr mag/cell
     absolute magnetization    =     7.58 Bohr mag/cell

     iteration # 12     ecut=   360.00 Ry     beta=0.30
     Davidson diagonalization with overlap
     ethr =  2.82E-11,  avg # of iterations =  2.0
 --- enter write_ns ---
 LDA+U parameters:
U(  1) =   4.3000   J(  1) =   0.0000   B(  1) =   0.0000
U(  2) =   4.3000   J(  2) =   0.0000   B(  2) =   0.0000
atom    1   Tr[ns(na)] (up, down, total) =   1.16422  4.84224  6.00647
   spin  1
    eigenvalues: 
  0.027  0.027  0.092  0.092  0.925
    eigenvectors:
  0.003  0.011  0.253  0.733  0.000
  0.205  0.452  0.002  0.007  0.333
  0.654  0.003  0.009  0.000  0.333
  0.011  0.003  0.733  0.253  0.000
  0.127  0.531  0.002  0.007  0.333
    occupations:
  0.091  0.003  0.003  0.000  0.006
  0.003  0.327  0.299  0.005 -0.299
  0.003  0.299  0.327 -0.005 -0.299
  0.000  0.005 -0.005  0.091 -0.000
  0.006 -0.299 -0.299 -0.000  0.327
   spin  2
    eigenvalues: 
  0.952  0.967  0.967  0.978  0.978
    eigenvectors:
  0.000  0.003  0.000  0.268  0.729
  0.333  0.104  0.561  0.000  0.001
  0.333  0.238  0.427  0.002  0.000
  0.000  0.000  0.003  0.729  0.268
  0.333  0.656  0.009  0.001  0.001
    occupations:
  0.978  0.000  0.000  0.000  0.001
  0.000  0.962 -0.005  0.000  0.005
  0.000 -0.005  0.962 -0.000  0.005
  0.000  0.000 -0.000  0.978 -0.000
  0.001  0.005  0.005 -0.000  0.962
atomic mag. moment =    -3.678022
atom    2   Tr[ns(na)] (up, down, total) =   4.84224  1.16422  6.00647
   spin  1
    eigenvalues: 
  0.952  0.967  0.967  0.978  0.978
    eigenvectors:
  0.000  0.003  0.000  0.305  0.692
  0.333  0.108  0.557  0.000  0.002
  0.333  0.233  0.432  0.002  0.000
  0.000  0.000  0.003  0.692  0.305
  0.333  0.657  0.008  0.001  0.001
    occupations:
  0.978  0.000  0.000  0.000  0.001
  0.000  0.962 -0.005  0.000  0.005
  0.000 -0.005  0.962 -0.000  0.005
  0.000  0.000 -0.000  0.978 -0.000
  0.001  0.005  0.005 -0.000  0.962
   spin  2
    eigenvalues: 
  0.027  0.027  0.092  0.092  0.925
    eigenvectors:
  0.009  0.005  0.260  0.726  0.000
  0.005  0.652  0.002  0.007  0.333
  0.542  0.116  0.009  0.000  0.333
  0.005  0.009  0.726  0.260  0.000
  0.439  0.218  0.002  0.007  0.333
    occupations:
  0.091  0.003  0.003  0.000  0.006
  0.003  0.327  0.299  0.005 -0.299
  0.003  0.299  0.327 -0.005 -0.299
  0.000  0.005 -0.005  0.091 -0.000
  0.006 -0.299 -0.299 -0.000  0.327
atomic mag. moment =     3.678021
N of occupied +U levels =   12.012934
 --- exit write_ns ---
 --- in v_hubbard ---
Hubbard energies (dc, U, total)    9.5038   9.6436   0.1398
 -------

     total cpu time spent up to now is      187.6 secs

     total energy              =    -558.93411844 Ry
     Harris-Foulkes estimate   =    -558.93411844 Ry
     estimated scf accuracy    <          6.1E-10 Ry

     total magnetization       =     0.00 Bohr mag/cell
     absolute magnetization    =     7.58 Bohr mag/cell

     iteration # 13     ecut=   360.00 Ry     beta=0.30
     Davidson diagonalization with overlap
     ethr =  1.39E-12,  avg # of iterations =  2.0
 --- enter write_ns ---
 LDA+U parameters:
U(  1) =   4.3000   J(  1) =   0.0000   B(  1) =   0.0000
U(  2) =   4.3000   J(  2) =   0.0000   B(  2) =   0.0000
atom    1   Tr[ns(na)] (up, down, total) =   1.16422  4.84224  6.00647
   spin  1
    eigenvalues: 
  0.027  0.027  0.092  0.092  0.925
    eigenvectors:
  0.006  0.008  0.224  0.762  0.000
  0.083  0.574  0.003  0.007  0.333
  0.641  0.017  0.009  0.000  0.333
  0.008  0.006  0.762  0.224  0.000
  0.262  0.395  0.002  0.007  0.333
    occupations:
  0.091  0.003  0.003  0.000  0.006
  0.003  0.327  0.299  0.005 -0.299
  0.003  0.299  0.327 -0.005 -0.299
  0.000  0.005 -0.005  0.091 -0.000
  0.006 -0.299 -0.299 -0.000  0.327
   spin  2
    eigenvalues: 
  0.952  0.967  0.967  0.978  0.978
    eigenvectors:
  0.000  0.003  0.000  0.299  0.698
  0.333  0.107  0.558  0.000  0.002
  0.333  0.234  0.431  0.002  0.000
  0.000  0.000  0.003  0.698  0.299
  0.333  0.657  0.008  0.001  0.001
    occupations:
  0.978  0.000  0.000  0.000  0.001
  0.000  0.962 -0.005  0.000  0.005
  0.000 -0.005  0.962 -0.000  0.005
  0.000  0.000 -0.000  0.978 -0.000
  0.001  0.005  0.005 -0.000  0.962
atomic mag. moment =    -3.678021
atom    2   Tr[ns(na)] (up, down, total) =   4.84224  1.16422  6.00647
   spin  1
    eigenvalues: 
  0.952  0.967  0.967  0.978  0.978
    eigenvectors:
  0.000  0.003  0.000  0.265  0.732
  0.333  0.106  0.559  0.000  0.001
  0.333  0.235  0.430  0.002  0.000
  0.000  0.000  0.003  0.732  0.265
  0.333  0.656  0.009  0.001  0.001
    occupations:
  0.978  0.000  0.000  0.000  0.001
  0.000  0.962 -0.005  0.000  0.005
  0.000 -0.005  0.962 -0.000  0.005
  0.000  0.000 -0.000  0.978 -0.000
  0.001  0.005  0.005 -0.000  0.962
   spin  2
    eigenvalues: 
  0.027  0.027  0.092  0.092  0.925
    eigenvectors:
  0.009  0.005  0.248  0.738  0.000
  0.011  0.647  0.002  0.007  0.333
  0.560  0.097  0.009  0.000  0.333
  0.005  0.009  0.738  0.248  0.000
  0.415  0.242  0.002  0.007  0.333
    occupations:
  0.091  0.003  0.003  0.000  0.006
  0.003  0.327  0.299  0.005 -0.299
  0.003  0.299  0.327 -0.005 -0.299
  0.000  0.005 -0.005  0.091 -0.000
  0.006 -0.299 -0.299 -0.000  0.327
atomic mag. moment =     3.678020
N of occupied +U levels =   12.012932
 --- exit write_ns ---
 --- in v_hubbard ---
Hubbard energies (dc, U, total)    9.5038   9.6436   0.1398
 -------

     total cpu time spent up to now is      201.9 secs

     total energy              =    -558.93411844 Ry
     Harris-Foulkes estimate   =    -558.93411844 Ry
     estimated scf accuracy    <          1.8E-10 Ry

     total magnetization       =    -0.00 Bohr mag/cell
     absolute magnetization    =     7.58 Bohr mag/cell

     iteration # 14     ecut=   360.00 Ry     beta=0.30
     Davidson diagonalization with overlap
     ethr =  4.00E-13,  avg # of iterations =  2.0
 --- enter write_ns ---
 LDA+U parameters:
U(  1) =   4.3000   J(  1) =   0.0000   B(  1) =   0.0000
U(  2) =   4.3000   J(  2) =   0.0000   B(  2) =   0.0000
atom    1   Tr[ns(na)] (up, down, total) =   1.16422  4.84224  6.00646
   spin  1
    eigenvalues: 
  0.027  0.027  0.092  0.092  0.925
    eigenvectors:
  0.002  0.012  0.276  0.710  0.000
  0.251  0.407  0.002  0.007  0.333
  0.644  0.013  0.009  0.000  0.333
  0.012  0.002  0.710  0.276  0.000
  0.091  0.566  0.003  0.007  0.333
    occupations:
  0.091  0.003  0.003  0.000  0.006
  0.003  0.327  0.299  0.005 -0.299
  0.003  0.299  0.327 -0.005 -0.299
  0.000  0.005 -0.005  0.091 -0.000
  0.006 -0.299 -0.299 -0.000  0.327
   spin  2
    eigenvalues: 
  0.952  0.967  0.967  0.978  0.978
    eigenvectors:
  0.000  0.003  0.000  0.282  0.716
  0.333  0.102  0.563  0.000  0.001
  0.333  0.240  0.425  0.002  0.000
  0.000  0.000  0.003  0.716  0.282
  0.333  0.655  0.010  0.001  0.001
    occupations:
  0.978  0.000  0.000  0.000  0.001
  0.000  0.962 -0.005  0.000  0.005
  0.000 -0.005  0.962 -0.000  0.005
  0.000  0.000 -0.000  0.978 -0.000
  0.001  0.005  0.005 -0.000  0.962
atomic mag. moment =    -3.678021
atom    2   Tr[ns(na)] (up, down, total) =   4.84224  1.16422  6.00646
   spin  1
    eigenvalues: 
  0.952  0.967  0.967  0.978  0.978
    eigenvectors:
  0.000  0.003  0.000  0.250  0.747
  0.333  0.100  0.564  0.000  0.001
  0.333  0.242  0.423  0.002  0.000
  0.000  0.000  0.003  0.747  0.250
  0.333  0.655  0.010  0.000  0.001
    occupations:
  0.978  0.000  0.000  0.000  0.001
  0.000  0.962 -0.005  0.000  0.005
  0.000 -0.005  0.962 -0.000  0.005
  0.000  0.000 -0.000  0.978 -0.000
  0.001  0.005  0.005 -0.000  0.962
   spin  2
    eigenvalues: 
  0.027  0.027  0.092  0.092  0.925
    eigenvectors:
  0.008  0.006  0.273  0.714  0.000
  0.020  0.637  0.002  0.007  0.333
  0.581  0.076  0.009  0.000  0.333
  0.006  0.008  0.714  0.273  0.000
  0.385  0.272  0.003  0.007  0.333
    occupations:
  0.091  0.003  0.003  0.000  0.006
  0.003  0.327  0.299  0.005 -0.299
  0.003  0.299  0.327 -0.005 -0.299
  0.000  0.005 -0.005  0.091 -0.000
  0.006 -0.299 -0.299 -0.000  0.327
atomic mag. moment =     3.678020
N of occupied +U levels =   12.012930
 --- exit write_ns ---
 --- in v_hubbard ---
Hubbard energies (dc, U, total)    9.5038   9.6436   0.1398
 -------
 
     Magnetic moment per site:
     atom:    1    charge:    1.0987    magn:   -0.3498    constr:    0.0000
     atom:    2    charge:    1.0969    magn:    0.3497    constr:    0.0000
     atom:    3    charge:    0.3870    magn:    0.0000    constr:    0.0000
     atom:    4    charge:    0.3870    magn:    0.0000    constr:    0.0000

     total cpu time spent up to now is      217.4 secs

     End of self-consistent calculation

 ------ SPIN UP ------------


          k = 0.0051 0.0051 0.0051 ( 31713 PWs)   bands (ev):

   -74.9716 -70.2023 -42.0304 -42.0304 -40.3639 -36.9854 -36.9854 -36.4591
    -5.8273  -4.6552   5.7148   6.9261   6.9261   8.4573   8.4573  10.0668
    10.6658  10.6658  10.7026  11.4318  11.4318  12.6468  14.7999  16.4878
    16.4878  18.0134  18.0134  18.5926  22.9947  27.0870  27.0870  29.0259

     occupation numbers 
     1.0000   1.0000   1.0000   1.0000   1.0000   1.0000   1.0000   1.0000
     1.0000   1.0000   1.0000   1.0000   1.0000   1.0000   1.0000   1.0000
     1.0000   1.0000   1.0000   1.0000   1.0000   1.0000   0.0000   0.0000
     0.0000   0.0000   0.0000   0.0000   0.0000   0.0000   0.0000   0.0000

          k =-0.0051-0.0051 0.0356 ( 31707 PWs)   bands (ev):

   -74.9707 -70.2012 -42.0396 -42.0326 -40.3623 -36.9978 -36.9884 -36.4573
    -5.5701  -4.6601   6.1129   6.9534   7.0954   8.0682   8.2759   9.3325
     9.8829  10.6440  10.7509  11.3550  11.3615  12.6497  16.0943  16.3828
    16.6143  17.8514  18.1160  20.1224  22.9196  25.2200  27.4096  27.6765

     occupation numbers 
     1.0000   1.0000   1.0000   1.0000   1.0000   1.0000   1.0000   1.0000
     1.0000   1.0000   1.0000   1.0000   1.0000   1.0000   1.0000   1.0000
     1.0000   1.0000   1.0000   1.0000   1.0000   1.0000   0.0000   0.0000
     0.0000   0.0000   0.0000   0.0000   0.0000   0.0000   0.0000   0.0000

          k =-0.0153-0.0153 0.0661 ( 31698 PWs)   bands (ev):

   -74.9689 -70.1990 -42.0579 -42.0372 -40.3592 -37.0227 -36.9945 -36.4534
    -5.0561  -4.6059   6.2608   6.8709   7.3126   7.6801   8.2507   8.5572
     9.3229  10.0476  10.8092  11.0099  11.6218  12.6177  16.2132  16.8884
    17.1819  18.2650  19.4463  21.6177  22.7124  23.4482  25.1365  26.2315

     occupation numbers 
     1.0000   1.0000   1.0000   1.0000   1.0000   1.0000   1.0000   1.0000
     1.0000   1.0000   1.0000   1.0000   1.0000   1.0000   1.0000   1.0000
     1.0000   1.0000   1.0000   1.0000   1.0000   1.0000   0.0000   0.0000
     0.0000   0.0000   0.0000   0.0000   0.0000   0.0000   0.0000   0.0000

          k = 0.0356 0.0356-0.0865 ( 31658 PWs)   bands (ev):

   -74.9680 -70.1979 -42.0671 -42.0395 -40.3576 -37.0350 -36.9975 -36.4515
    -4.7318  -4.6219   6.1426   6.8383   7.2561   7.3021   8.5586   8.5616
     9.2527   9.5285  10.3857  11.4613  11.8067  12.5173  16.2205  17.0113
    17.7954  18.3229  20.3175  20.8393  22.6583  23.2894  24.5029  25.2280

     occupation numbers 
     1.0000   1.0000   1.0000   1.0000   1.0000   1.0000   1.0000   1.0000
     1.0000   1.0000   1.0000   1.0000   1.0000   1.0000   1.0000   1.0000
     1.0000   1.0000   1.0000   1.0000   1.0000   1.0000   0.0000   0.0000
     0.0000   0.0000   0.0000   0.0000   0.0000   0.0000   0.0000   0.0000

          k = 0.0254 0.0254-0.0560 ( 31702 PWs)   bands (ev):

   -74.9689 -70.1990 -42.0579 -42.0372 -40.3592 -37.0227 -36.9945 -36.4534
    -5.0754  -4.5885   6.5388   6.8794   7.3263   7.3331   8.2393   8.5361
     9.2167   9.9317  10.6408  11.5190  11.7808  12.5553  16.2031  16.8561
    17.3521  18.2187  18.8924  21.8851  22.7416  23.1963  24.6629  27.3160

     occupation numbers 
     1.0000   1.0000   1.0000   1.0000   1.0000   1.0000   1.0000   1.0000
     1.0000   1.0000   1.0000   1.0000   1.0000   1.0000   1.0000   1.0000
     1.0000   1.0000   1.0000   1.0000   1.0000   1.0000   0.0000   0.0000
     0.0000   0.0000   0.0000   0.0000   0.0000   0.0000   0.0000   0.0000

          k = 0.0153 0.0153-0.0254 ( 31683 PWs)   bands (ev):

   -74.9707 -70.2012 -42.0396 -42.0327 -40.3623 -36.9978 -36.9884 -36.4572
    -5.6062  -4.6155   6.0988   6.8431   7.1005   8.0930   8.2881   9.5524
     9.8361  10.4185  10.4944  11.6187  11.6792  12.6255  15.9814  16.3895
    16.6043  17.7041  18.0517  20.2684  22.7224  25.2497  27.0699  27.5278

     occupation numbers 
     1.0000   1.0000   1.0000   1.0000   1.0000   1.0000   1.0000   1.0000
     1.0000   1.0000   1.0000   1.0000   1.0000   1.0000   1.0000   1.0000
     1.0000   1.0000   1.0000   1.0000   1.0000   1.0000   0.0000   0.0000
     0.0000   0.0000   0.0000   0.0000   0.0000   0.0000   0.0000   0.0000

          k =-0.0153 0.0254 0.0254 ( 31728 PWs)   bands (ev):

   -74.9707 -70.2012 -42.0396 -42.0327 -40.3623 -36.9978 -36.9884 -36.4573
    -5.5225  -4.7193   6.2883   6.8765   7.1406   8.0889   8.2897   9.2736
     9.7047  10.1605  10.5500  11.6871  11.8825  12.6172  16.0831  16.5956
    16.6469  17.6603  17.9769  20.0278  23.0789  25.5782  26.4912  27.7651

     occupation numbers 
     1.0000   1.0000   1.0000   1.0000   1.0000   1.0000   1.0000   1.0000
     1.0000   1.0000   1.0000   1.0000   1.0000   1.0000   1.0000   1.0000
     1.0000   1.0000   1.0000   1.0000   1.0000   1.0000   0.0000   0.0000
     0.0000   0.0000   0.0000   0.0000   0.0000   0.0000   0.0000   0.0000

          k =-0.0254 0.0153 0.0560 ( 31700 PWs)   bands (ev):

   -74.9694 -70.1995 -42.0516 -42.0378 -40.3600 -37.0141 -36.9953 -36.4544
    -5.1332  -4.6847   6.3621   7.0407   7.2238   7.6936   8.0739   8.8498
     9.2924  10.0301  10.6758  11.2818  11.6653  12.6865  16.1583  16.7406
    17.3403  18.0638  18.8701  20.9759  23.4070  24.0244  25.1268  26.8446

     occupation numbers 
     1.0000   1.0000   1.0000   1.0000   1.0000   1.0000   1.0000   1.0000
     1.0000   1.0000   1.0000   1.0000   1.0000   1.0000   1.0000   1.0000
     1.0000   1.0000   1.0000   1.0000   1.0000   1.0000   0.0000   0.0000
     0.0000   0.0000   0.0000   0.0000   0.0000   0.0000   0.0000   0.0000

          k = 0.0254 0.0661-0.0967 ( 31661 PWs)   bands (ev):

   -74.9680 -70.1979 -42.0624 -42.0442 -40.3577 -37.0287 -37.0039 -36.4515
    -4.7557  -4.5990   6.3291   6.6585   7.1355   7.6428   8.2191   8.5856
     9.0228   9.9778  10.5089  11.2924  11.4722  12.6670  16.2765  16.8575
    17.9343  18.2171  20.5104  21.3256  22.4930  23.6768  24.0194  24.9298

     occupation numbers 
     1.0000   1.0000   1.0000   1.0000   1.0000   1.0000   1.0000   1.0000
     1.0000   1.0000   1.0000   1.0000   1.0000   1.0000   1.0000   1.0000
     1.0000   1.0000   1.0000   1.0000   1.0000   1.0000   0.0000   0.0000
     0.0000   0.0000   0.0000   0.0000   0.0000   0.0000   0.0000   0.0000

          k = 0.0153 0.0560-0.0661 ( 31677 PWs)   bands (ev):

   -74.9680 -70.1979 -42.0624 -42.0442 -40.3577 -37.0287 -37.0039 -36.4515
    -4.7649  -4.5936   6.3145   6.8918   7.2686   7.4913   8.0949   8.3512
     9.1248   9.9513  10.5161  11.1960  11.6809  12.6153  16.3346  16.8033
    17.9679  18.3048  19.8719  21.6209  23.1077  23.4137  24.0442  25.1098

     occupation numbers 
     1.0000   1.0000   1.0000   1.0000   1.0000   1.0000   1.0000   1.0000
     1.0000   1.0000   1.0000   1.0000   1.0000   1.0000   1.0000   1.0000
     1.0000   1.0000   1.0000   1.0000   1.0000   1.0000   0.0000   0.0000
     0.0000   0.0000   0.0000   0.0000   0.0000   0.0000   0.0000   0.0000

          k = 0.0051 0.0458-0.0356 ( 31677 PWs)   bands (ev):

   -74.9694 -70.1995 -42.0516 -42.0378 -40.3600 -37.0141 -36.9953 -36.4544
    -5.2120  -4.5997   6.6113   6.9430   7.0757   7.7262   7.9079   8.9243
     9.1072  10.4235  10.6205  11.1460  11.7676  12.6290  16.2553  16.7198
    17.3596  17.9988  18.5037  21.8195  22.6403  23.9337  25.3705  26.8518

     occupation numbers 
     1.0000   1.0000   1.0000   1.0000   1.0000   1.0000   1.0000   1.0000
     1.0000   1.0000   1.0000   1.0000   1.0000   1.0000   1.0000   1.0000
     1.0000   1.0000   1.0000   1.0000   1.0000   1.0000   0.0000   0.0000
     0.0000   0.0000   0.0000   0.0000   0.0000   0.0000   0.0000   0.0000

          k =-0.0356 0.0458 0.0458 ( 31695 PWs)   bands (ev):

   -74.9689 -70.1990 -42.0579 -42.0372 -40.3592 -37.0226 -36.9945 -36.4534
    -4.9328  -4.7358   6.1575   6.8269   7.3628   7.7599   8.2261   8.6243
     9.3296   9.9017  10.3645  11.6931  11.7629  12.6930  16.1069  16.8759
    17.8518  18.2851  18.3324  20.4375  23.1388  23.9572  25.0737  27.7607

     occupation numbers 
     1.0000   1.0000   1.0000   1.0000   1.0000   1.0000   1.0000   1.0000
     1.0000   1.0000   1.0000   1.0000   1.0000   1.0000   1.0000   1.0000
     1.0000   1.0000   1.0000   1.0000   1.0000   1.0000   0.0000   0.0000
     0.0000   0.0000   0.0000   0.0000   0.0000   0.0000   0.0000   0.0000

          k = 0.0153 0.0967-0.1068 ( 31662 PWs)   bands (ev):

   -74.9680 -70.1979 -42.0624 -42.0442 -40.3577 -37.0286 -37.0039 -36.4514
    -4.6947  -4.6581   6.0101   6.8987   7.2520   7.5198   8.1245   8.6366
     9.3501   9.6804  10.5228  11.3829  11.6438  12.7173  16.2662  16.7799
    18.1629  18.2749  19.6894  20.6690  22.8960  23.3351  24.3422  25.7903

     occupation numbers 
     1.0000   1.0000   1.0000   1.0000   1.0000   1.0000   1.0000   1.0000
     1.0000   1.0000   1.0000   1.0000   1.0000   1.0000   1.0000   1.0000
     1.0000   1.0000   1.0000   1.0000   1.0000   1.0000   0.0000   0.0000
     0.0000   0.0000   0.0000   0.0000   0.0000   0.0000   0.0000   0.0000

          k = 0.0051 0.0865-0.0763 ( 31676 PWs)   bands (ev):

   -74.9676 -70.1974 -42.0562 -42.0562 -40.3569 -37.0201 -37.0201 -36.4505
    -4.5991  -4.5991   6.5028   6.9430   7.1023   7.3034   7.6197   8.4619
     9.5050   9.6843  10.5246  11.1979  11.5471  12.6445  16.5682  16.6008
    18.1184  18.3037  21.6895  21.8617  22.0590  22.9562  23.5365  23.9684

     occupation numbers 
     1.0000   1.0000   1.0000   1.0000   1.0000   1.0000   1.0000   1.0000
     1.0000   1.0000   1.0000   1.0000   1.0000   1.0000   1.0000   1.0000
     1.0000   1.0000   1.0000   1.0000   1.0000   1.0000   0.0000   0.0000
     0.0000   0.0000   0.0000   0.0000   0.0000   0.0000   0.0000   0.0000

          k =-0.0051 0.0763-0.0458 ( 31669 PWs)   bands (ev):

   -74.9680 -70.1979 -42.0624 -42.0442 -40.3576 -37.0287 -37.0039 -36.4515
    -4.7731  -4.5848   6.5300   6.6307   7.1619   7.6224   8.2072   8.3204
     9.0320  10.0500  10.5030  11.1988  11.5568  12.6181  16.3144  16.8490
    17.9183  18.2066  20.3084  22.0651  22.5685  23.5065  24.0516  24.6588

     occupation numbers 
     1.0000   1.0000   1.0000   1.0000   1.0000   1.0000   1.0000   1.0000
     1.0000   1.0000   1.0000   1.0000   1.0000   1.0000   1.0000   1.0000
     1.0000   1.0000   1.0000   1.0000   1.0000   1.0000   0.0000   0.0000
     0.0000   0.0000   0.0000   0.0000   0.0000   0.0000   0.0000   0.0000

          k = 0.0661-0.0560-0.0560 ( 31664 PWs)   bands (ev):

   -74.9680 -70.1979 -42.0671 -42.0395 -40.3577 -37.0349 -36.9975 -36.4514
    -4.6984  -4.6477   5.6082   7.1175   7.2943   7.3665   8.5592   8.5820
     9.5691   9.6015  10.3648  11.5133  11.6852  12.7103  16.2514  17.0550
    18.1194  18.4498  18.6534  20.0619  23.0693  23.1197  25.5338  26.7880

     occupation numbers 
     1.0000   1.0000   1.0000   1.0000   1.0000   1.0000   1.0000   1.0000
     1.0000   1.0000   1.0000   1.0000   1.0000   1.0000   1.0000   1.0000
     1.0000   1.0000   1.0000   1.0000   1.0000   1.0000   0.0000   0.0000
     0.0000   0.0000   0.0000   0.0000   0.0000   0.0000   0.0000   0.0000

          k = 0.0560-0.0661-0.0254 ( 31662 PWs)   bands (ev):

   -74.9680 -70.1979 -42.0624 -42.0442 -40.3577 -37.0286 -37.0039 -36.4514
    -4.7334  -4.6227   6.1019   7.0138   7.2869   7.4413   8.0269   8.5276
     9.3002   9.7315  10.5196  11.4305  11.6004  12.6693  16.3049  16.7758
    18.1081  18.3275  19.5568  21.0646  23.0033  23.4009  24.2176  25.6777

     occupation numbers 
     1.0000   1.0000   1.0000   1.0000   1.0000   1.0000   1.0000   1.0000
     1.0000   1.0000   1.0000   1.0000   1.0000   1.0000   1.0000   1.0000
     1.0000   1.0000   1.0000   1.0000   1.0000   1.0000   0.0000   0.0000
     0.0000   0.0000   0.0000   0.0000   0.0000   0.0000   0.0000   0.0000

          k = 0.0458-0.0356-0.0356 ( 31700 PWs)   bands (ev):

   -74.9689 -70.1990 -42.0579 -42.0372 -40.3592 -37.0226 -36.9945 -36.4534
    -5.0306  -4.6367   6.4136   7.0146   7.2510   7.3588   8.2265   8.5984
     9.2326   9.8653  10.4985  11.7699  11.8452  12.5980  16.1387  16.8492
    17.7434  18.2287  18.3253  21.0305  22.9474  23.9605  24.3974  27.7533

     occupation numbers 
     1.0000   1.0000   1.0000   1.0000   1.0000   1.0000   1.0000   1.0000
     1.0000   1.0000   1.0000   1.0000   1.0000   1.0000   1.0000   1.0000
     1.0000   1.0000   1.0000   1.0000   1.0000   1.0000   0.0000   0.0000
     0.0000   0.0000   0.0000   0.0000   0.0000   0.0000   0.0000   0.0000

          k = 0.0153 0.0153 0.0153 ( 31737 PWs)   bands (ev):

   -74.9716 -70.2023 -42.0303 -42.0303 -40.3638 -36.9854 -36.9854 -36.4593
    -5.6892  -4.8350   6.1672   6.9663   6.9663   8.4711   8.4711   9.2520
    10.2814  10.2814  10.6630  11.8131  11.8131  12.5439  15.6539  16.4734
    16.4734  17.9212  17.9212  18.4248  23.3488  27.5190  27.6533  27.6533

     occupation numbers 
     1.0000   1.0000   1.0000   1.0000   1.0000   1.0000   1.0000   1.0000
     1.0000   1.0000   1.0000   1.0000   1.0000   1.0000   1.0000   1.0000
     1.0000   1.0000   1.0000   1.0000   1.0000   1.0000   0.0000   0.0000
     0.0000   0.0000   0.0000   0.0000   0.0000   0.0000   0.0000   0.0000

          k = 0.0051 0.0051 0.0458 ( 31722 PWs)   bands (ev):

   -74.9707 -70.2012 -42.0396 -42.0326 -40.3622 -36.9978 -36.9884 -36.4574
    -5.4215  -4.8370   6.2885   7.1300   7.1992   7.9595   8.2633   9.2042
     9.4481  10.4763  10.9793  11.1442  11.5038  12.6717  16.1465  16.6168
    16.6602  18.1054  18.2100  19.5498  23.6585  25.5340  26.8479  28.2232

     occupation numbers 
     1.0000   1.0000   1.0000   1.0000   1.0000   1.0000   1.0000   1.0000
     1.0000   1.0000   1.0000   1.0000   1.0000   1.0000   1.0000   1.0000
     1.0000   1.0000   1.0000   1.0000   1.0000   1.0000   0.0000   0.0000
     0.0000   0.0000   0.0000   0.0000   0.0000   0.0000   0.0000   0.0000

          k = 0.0560 0.0560-0.1068 ( 31658 PWs)   bands (ev):

   -74.9689 -70.1990 -42.0579 -42.0372 -40.3592 -37.0226 -36.9945 -36.4535
    -4.9785  -4.6848   6.0490   6.8083   7.3164   7.9736   8.2503   8.6696
     9.4494  10.0979  10.4721  11.0790  11.5274  12.6993  16.1522  16.9117
    17.2605  18.3232  19.8416  20.3306  23.0807  24.6077  24.7893  26.0445

     occupation numbers 
     1.0000   1.0000   1.0000   1.0000   1.0000   1.0000   1.0000   1.0000
     1.0000   1.0000   1.0000   1.0000   1.0000   1.0000   1.0000   1.0000
     1.0000   1.0000   1.0000   1.0000   1.0000   1.0000   0.0000   0.0000
     0.0000   0.0000   0.0000   0.0000   0.0000   0.0000   0.0000   0.0000

          k = 0.0458 0.0458-0.0763 ( 31648 PWs)   bands (ev):

   -74.9680 -70.1979 -42.0671 -42.0395 -40.3577 -37.0350 -36.9975 -36.4515
    -4.7177  -4.6322   5.8317   6.9262   7.2982   7.4504   8.5126   8.5604
     9.4264   9.5643  10.3797  11.4675  11.7464  12.6200  16.2378  17.0339
    17.8812  18.3851  19.4884  20.4131  22.9375  23.1849  25.0098  26.1078

     occupation numbers 
     1.0000   1.0000   1.0000   1.0000   1.0000   1.0000   1.0000   1.0000
     1.0000   1.0000   1.0000   1.0000   1.0000   1.0000   1.0000   1.0000
     1.0000   1.0000   1.0000   1.0000   1.0000   1.0000   0.0000   0.0000
     0.0000   0.0000   0.0000   0.0000   0.0000   0.0000   0.0000   0.0000

          k =-0.0051 0.0356 0.0356 ( 31726 PWs)   bands (ev):

   -74.9707 -70.2012 -42.0396 -42.0327 -40.3622 -36.9978 -36.9884 -36.4574
    -5.3358  -4.9342   6.4703   7.1079   7.1777   8.1591   8.2760   8.7169
     9.5313  10.0687  10.7473  11.4973  11.9472  12.6286  16.1842  16.5993
    17.0229  17.8372  17.9659  19.5027  24.0236  25.7321  26.2543  27.7829

     occupation numbers 
     1.0000   1.0000   1.0000   1.0000   1.0000   1.0000   1.0000   1.0000
     1.0000   1.0000   1.0000   1.0000   1.0000   1.0000   1.0000   1.0000
     1.0000   1.0000   1.0000   1.0000   1.0000   1.0000   0.0000   0.0000
     0.0000   0.0000   0.0000   0.0000   0.0000   0.0000   0.0000   0.0000

          k = 0.0458 0.0865-0.1170 ( 31700 PWs)   bands (ev):

   -74.9694 -70.1995 -42.0516 -42.0378 -40.3600 -37.0141 -36.9953 -36.4544
    -4.9953  -4.8289   6.2313   7.0049   7.3345   7.6633   8.3860   8.8558
     9.3885   9.6354  10.8122  11.0614  11.7653  12.7285  16.0976  16.7542
    17.3688  18.0784  19.4360  20.1396  24.0779  24.3327  25.0057  26.0488

     occupation numbers 
     1.0000   1.0000   1.0000   1.0000   1.0000   1.0000   1.0000   1.0000
     1.0000   1.0000   1.0000   1.0000   1.0000   1.0000   1.0000   1.0000
     1.0000   1.0000   1.0000   1.0000   1.0000   1.0000   0.0000   0.0000
     0.0000   0.0000   0.0000   0.0000   0.0000   0.0000   0.0000   0.0000

          k = 0.0356 0.0763-0.0865 ( 31646 PWs)   bands (ev):

   -74.9680 -70.1979 -42.0624 -42.0442 -40.3577 -37.0286 -37.0039 -36.4515
    -4.7194  -4.6328   6.0930   6.7552   7.1898   7.5950   8.2248   8.6909
     9.1609   9.8421  10.5214  11.2321  11.6475  12.7135  16.2572  16.8175
    18.0083  18.3008  20.2429  20.6099  22.7318  23.4084  24.3409  25.3802

     occupation numbers 
     1.0000   1.0000   1.0000   1.0000   1.0000   1.0000   1.0000   1.0000
     1.0000   1.0000   1.0000   1.0000   1.0000   1.0000   1.0000   1.0000
     1.0000   1.0000   1.0000   1.0000   1.0000   1.0000   0.0000   0.0000
     0.0000   0.0000   0.0000   0.0000   0.0000   0.0000   0.0000   0.0000

          k = 0.0967-0.0661-0.0661 ( 31657 PWs)   bands (ev):

   -74.9689 -70.1990 -42.0579 -42.0372 -40.3592 -37.0226 -36.9945 -36.4534
    -4.8659  -4.8007   6.0143   6.7647   7.3410   8.0574   8.2385   8.6840
     9.4133  10.0162  10.2816  11.4098  11.6064  12.7311  16.1127  16.9060
    17.5004  18.3333  19.1760  20.1208  23.2496  24.1257  25.7142  26.2725

     occupation numbers 
     1.0000   1.0000   1.0000   1.0000   1.0000   1.0000   1.0000   1.0000
     1.0000   1.0000   1.0000   1.0000   1.0000   1.0000   1.0000   1.0000
     1.0000   1.0000   1.0000   1.0000   1.0000   1.0000   0.0000   0.0000
     0.0000   0.0000   0.0000   0.0000   0.0000   0.0000   0.0000   0.0000

          k = 0.0254 0.0254 0.0254 ( 31707 PWs)   bands (ev):

   -74.9716 -70.2023 -42.0303 -42.0303 -40.3637 -36.9854 -36.9854 -36.4594
    -5.4390  -5.1258   6.9651   7.0088   7.0088   8.1568   8.4873   8.4873
    10.0206  10.0206  10.6650  12.0678  12.0678  12.4314  16.4586  16.4586
    16.7652  17.8297  17.8297  17.8412  24.2929  25.7864  28.6505  28.6505

     occupation numbers 
     1.0000   1.0000   1.0000   1.0000   1.0000   1.0000   1.0000   1.0000
     1.0000   1.0000   1.0000   1.0000   1.0000   1.0000   1.0000   1.0000
     1.0000   1.0000   1.0000   1.0000   1.0000   1.0000   0.0000   0.0000
     0.0000   0.0000   0.0000   0.0000   0.0000   0.0000   0.0000   0.0000

          k = 0.0763 0.0763-0.1272 ( 31709 PWs)   bands (ev):

   -74.9707 -70.2012 -42.0396 -42.0326 -40.3622 -36.9978 -36.9884 -36.4575
    -5.1919  -5.0863   6.4524   7.1722   7.3579   7.9998   8.2617   8.7862
     9.3225  10.1950  10.8861  11.3138  11.7898  12.6615  16.1843  16.6105
    16.9372  18.0302  18.5255  18.9484  24.7491  25.4626  26.2780  27.2302

     occupation numbers 
     1.0000   1.0000   1.0000   1.0000   1.0000   1.0000   1.0000   1.0000
     1.0000   1.0000   1.0000   1.0000   1.0000   1.0000   1.0000   1.0000
     1.0000   1.0000   1.0000   1.0000   1.0000   1.0000   0.0000   0.0000
[...]
     0.0000   0.0000   0.0000   0.0000   0.0000   0.0000   0.0000   0.0000

          k = 0.0254 0.0254-0.0560 ( 31702 PWs)   bands (ev):

   -74.9689 -70.1990 -42.0579 -42.0373 -40.3592 -37.0227 -36.9945 -36.4534
    -5.0754  -4.5885   6.5388   6.8794   7.3263   7.3331   8.2393   8.5361
     9.2166   9.9317  10.6408  11.5190  11.7808  12.5553  16.2030  16.8561
    17.3521  18.2188  18.8924  21.8851  22.7416  23.1963  24.6629  27.3161

     occupation numbers 
     1.0000   1.0000   1.0000   1.0000   1.0000   1.0000   1.0000   1.0000
     1.0000   1.0000   1.0000   1.0000   1.0000   1.0000   1.0000   1.0000
     1.0000   1.0000   1.0000   1.0000   1.0000   1.0000   0.0000   0.0000
     0.0000   0.0000   0.0000   0.0000   0.0000   0.0000   0.0000   0.0000

          k = 0.0153 0.0153-0.0254 ( 31683 PWs)   bands (ev):

   -74.9707 -70.2012 -42.0396 -42.0327 -40.3623 -36.9978 -36.9884 -36.4572
    -5.6062  -4.6155   6.0988   6.8430   7.1005   8.0930   8.2881   9.5524
     9.8361  10.4185  10.4944  11.6187  11.6792  12.6255  15.9814  16.3895
    16.6043  17.7042  18.0518  20.2684  22.7224  25.2497  27.0699  27.5278

     occupation numbers 
     1.0000   1.0000   1.0000   1.0000   1.0000   1.0000   1.0000   1.0000
     1.0000   1.0000   1.0000   1.0000   1.0000   1.0000   1.0000   1.0000
     1.0000   1.0000   1.0000   1.0000   1.0000   1.0000   0.0000   0.0000
     0.0000   0.0000   0.0000   0.0000   0.0000   0.0000   0.0000   0.0000

          k =-0.0153 0.0254 0.0254 ( 31728 PWs)   bands (ev):

   -74.9707 -70.2012 -42.0396 -42.0327 -40.3623 -36.9978 -36.9884 -36.4572
    -5.5225  -4.7193   6.2883   6.8765   7.1406   8.0889   8.2897   9.2736
     9.7047  10.1605  10.5500  11.6871  11.8825  12.6171  16.0831  16.5955
    16.6469  17.6604  17.9770  20.0278  23.0789  25.5782  26.4912  27.7651

     occupation numbers 
     1.0000   1.0000   1.0000   1.0000   1.0000   1.0000   1.0000   1.0000
     1.0000   1.0000   1.0000   1.0000   1.0000   1.0000   1.0000   1.0000
     1.0000   1.0000   1.0000   1.0000   1.0000   1.0000   0.0000   0.0000
     0.0000   0.0000   0.0000   0.0000   0.0000   0.0000   0.0000   0.0000

          k =-0.0254 0.0153 0.0560 ( 31700 PWs)   bands (ev):

   -74.9694 -70.1995 -42.0516 -42.0378 -40.3600 -37.0141 -36.9953 -36.4544
    -5.1332  -4.6847   6.3621   7.0407   7.2237   7.6936   8.0739   8.8498
     9.2924  10.0301  10.6758  11.2818  11.6653  12.6865  16.1582  16.7405
    17.3403  18.0639  18.8701  20.9759  23.4070  24.0244  25.1268  26.8446

     occupation numbers 
     1.0000   1.0000   1.0000   1.0000   1.0000   1.0000   1.0000   1.0000
     1.0000   1.0000   1.0000   1.0000   1.0000   1.0000   1.0000   1.0000
     1.0000   1.0000   1.0000   1.0000   1.0000   1.0000   0.0000   0.0000
     0.0000   0.0000   0.0000   0.0000   0.0000   0.0000   0.0000   0.0000

          k = 0.0254 0.0661-0.0967 ( 31661 PWs)   bands (ev):

   -74.9680 -70.1979 -42.0624 -42.0442 -40.3577 -37.0287 -37.0039 -36.4514
    -4.7557  -4.5990   6.3291   6.6585   7.1355   7.6428   8.2191   8.5856
     9.0227   9.9778  10.5089  11.2924  11.4722  12.6670  16.2765  16.8575
    17.9343  18.2172  20.5105  21.3256  22.4930  23.6768  24.0194  24.9298

     occupation numbers 
     1.0000   1.0000   1.0000   1.0000   1.0000   1.0000   1.0000   1.0000
     1.0000   1.0000   1.0000   1.0000   1.0000   1.0000   1.0000   1.0000
     1.0000   1.0000   1.0000   1.0000   1.0000   1.0000   0.0000   0.0000
     0.0000   0.0000   0.0000   0.0000   0.0000   0.0000   0.0000   0.0000

          k = 0.0153 0.0560-0.0661 ( 31677 PWs)   bands (ev):

   -74.9680 -70.1979 -42.0624 -42.0442 -40.3577 -37.0287 -37.0039 -36.4514
    -4.7649  -4.5937   6.3145   6.8918   7.2686   7.4913   8.0949   8.3512
     9.1248   9.9512  10.5161  11.1960  11.6809  12.6153  16.3346  16.8033
    17.9679  18.3048  19.8719  21.6209  23.1077  23.4137  24.0442  25.1098

     occupation numbers 
     1.0000   1.0000   1.0000   1.0000   1.0000   1.0000   1.0000   1.0000
     1.0000   1.0000   1.0000   1.0000   1.0000   1.0000   1.0000   1.0000
     1.0000   1.0000   1.0000   1.0000   1.0000   1.0000   0.0000   0.0000
     0.0000   0.0000   0.0000   0.0000   0.0000   0.0000   0.0000   0.0000

          k = 0.0051 0.0458-0.0356 ( 31677 PWs)   bands (ev):

   -74.9694 -70.1995 -42.0516 -42.0378 -40.3600 -37.0141 -36.9953 -36.4543
    -5.2120  -4.5997   6.6113   6.9430   7.0757   7.7262   7.9079   8.9243
     9.1072  10.4235  10.6205  11.1460  11.7676  12.6289  16.2553  16.7197
    17.3597  17.9989  18.5037  21.8195  22.6403  23.9337  25.3705  26.8518

     occupation numbers 
     1.0000   1.0000   1.0000   1.0000   1.0000   1.0000   1.0000   1.0000
     1.0000   1.0000   1.0000   1.0000   1.0000   1.0000   1.0000   1.0000
     1.0000   1.0000   1.0000   1.0000   1.0000   1.0000   0.0000   0.0000
     0.0000   0.0000   0.0000   0.0000   0.0000   0.0000   0.0000   0.0000

          k =-0.0356 0.0458 0.0458 ( 31695 PWs)   bands (ev):

   -74.9689 -70.1990 -42.0579 -42.0373 -40.3592 -37.0226 -36.9945 -36.4533
    -4.9328  -4.7358   6.1575   6.8269   7.3628   7.7599   8.2261   8.6243
     9.3296   9.9017  10.3645  11.6931  11.7629  12.6929  16.1069  16.8758
    17.8519  18.2851  18.3324  20.4375  23.1388  23.9572  25.0737  27.7607

     occupation numbers 
     1.0000   1.0000   1.0000   1.0000   1.0000   1.0000   1.0000   1.0000
     1.0000   1.0000   1.0000   1.0000   1.0000   1.0000   1.0000   1.0000
     1.0000   1.0000   1.0000   1.0000   1.0000   1.0000   0.0000   0.0000
     0.0000   0.0000   0.0000   0.0000   0.0000   0.0000   0.0000   0.0000

          k = 0.0153 0.0967-0.1068 ( 31662 PWs)   bands (ev):

   -74.9680 -70.1979 -42.0625 -42.0442 -40.3577 -37.0286 -37.0039 -36.4514
    -4.6947  -4.6581   6.0101   6.8987   7.2520   7.5198   8.1245   8.6366
     9.3501   9.6804  10.5228  11.3829  11.6438  12.7173  16.2662  16.7798
    18.1629  18.2750  19.6894  20.6690  22.8960  23.3351  24.3422  25.7903

     occupation numbers 
     1.0000   1.0000   1.0000   1.0000   1.0000   1.0000   1.0000   1.0000
     1.0000   1.0000   1.0000   1.0000   1.0000   1.0000   1.0000   1.0000
     1.0000   1.0000   1.0000   1.0000   1.0000   1.0000   0.0000   0.0000
     0.0000   0.0000   0.0000   0.0000   0.0000   0.0000   0.0000   0.0000

          k = 0.0051 0.0865-0.0763 ( 31676 PWs)   bands (ev):

   -74.9676 -70.1973 -42.0562 -42.0562 -40.3569 -37.0201 -37.0201 -36.4504
    -4.5991  -4.5991   6.5028   6.9430   7.1023   7.3034   7.6197   8.4619
     9.5050   9.6843  10.5246  11.1979  11.5471  12.6444  16.5682  16.6007
    18.1185  18.3038  21.6895  21.8617  22.0590  22.9562  23.5365  23.9684

     occupation numbers 
     1.0000   1.0000   1.0000   1.0000   1.0000   1.0000   1.0000   1.0000
     1.0000   1.0000   1.0000   1.0000   1.0000   1.0000   1.0000   1.0000
     1.0000   1.0000   1.0000   1.0000   1.0000   1.0000   0.0000   0.0000
     0.0000   0.0000   0.0000   0.0000   0.0000   0.0000   0.0000   0.0000

          k =-0.0051 0.0763-0.0458 ( 31669 PWs)   bands (ev):

   -74.9680 -70.1979 -42.0624 -42.0442 -40.3577 -37.0287 -37.0039 -36.4514
    -4.7731  -4.5848   6.5300   6.6307   7.1619   7.6224   8.2072   8.3204
     9.0320  10.0500  10.5030  11.1988  11.5568  12.6180  16.3144  16.8489
    17.9184  18.2066  20.3084  22.0651  22.5685  23.5065  24.0516  24.6588

     occupation numbers 
     1.0000   1.0000   1.0000   1.0000   1.0000   1.0000   1.0000   1.0000
     1.0000   1.0000   1.0000   1.0000   1.0000   1.0000   1.0000   1.0000
     1.0000   1.0000   1.0000   1.0000   1.0000   1.0000   0.0000   0.0000
     0.0000   0.0000   0.0000   0.0000   0.0000   0.0000   0.0000   0.0000

          k = 0.0661-0.0560-0.0560 ( 31664 PWs)   bands (ev):

   -74.9680 -70.1979 -42.0671 -42.0396 -40.3577 -37.0349 -36.9975 -36.4514
    -4.6984  -4.6477   5.6082   7.1175   7.2943   7.3665   8.5592   8.5820
     9.5691   9.6015  10.3648  11.5133  11.6852  12.7103  16.2513  17.0549
    18.1195  18.4499  18.6534  20.0619  23.0693  23.1197  25.5338  26.7880

     occupation numbers 
     1.0000   1.0000   1.0000   1.0000   1.0000   1.0000   1.0000   1.0000
     1.0000   1.0000   1.0000   1.0000   1.0000   1.0000   1.0000   1.0000
     1.0000   1.0000   1.0000   1.0000   1.0000   1.0000   0.0000   0.0000
     0.0000   0.0000   0.0000   0.0000   0.0000   0.0000   0.0000   0.0000

          k = 0.0560-0.0661-0.0254 ( 31662 PWs)   bands (ev):

   -74.9680 -70.1979 -42.0624 -42.0442 -40.3577 -37.0286 -37.0039 -36.4514
    -4.7334  -4.6227   6.1019   7.0138   7.2869   7.4413   8.0269   8.5276
     9.3002   9.7315  10.5196  11.4305  11.6004  12.6693  16.3048  16.7757
    18.1082  18.3275  19.5568  21.0646  23.0033  23.4009  24.2176  25.6777

     occupation numbers 
     1.0000   1.0000   1.0000   1.0000   1.0000   1.0000   1.0000   1.0000
     1.0000   1.0000   1.0000   1.0000   1.0000   1.0000   1.0000   1.0000
     1.0000   1.0000   1.0000   1.0000   1.0000   1.0000   0.0000   0.0000
     0.0000   0.0000   0.0000   0.0000   0.0000   0.0000   0.0000   0.0000

          k = 0.0458-0.0356-0.0356 ( 31700 PWs)   bands (ev):

   -74.9689 -70.1990 -42.0579 -42.0373 -40.3592 -37.0226 -36.9945 -36.4533
    -5.0306  -4.6367   6.4136   7.0146   7.2510   7.3588   8.2265   8.5984
     9.2326   9.8653  10.4985  11.7699  11.8452  12.5979  16.1387  16.8492
    17.7434  18.2288  18.3253  21.0306  22.9474  23.9605  24.3974  27.7533

     occupation numbers 
     1.0000   1.0000   1.0000   1.0000   1.0000   1.0000   1.0000   1.0000
     1.0000   1.0000   1.0000   1.0000   1.0000   1.0000   1.0000   1.0000
     1.0000   1.0000   1.0000   1.0000   1.0000   1.0000   0.0000   0.0000
     0.0000   0.0000   0.0000   0.0000   0.0000   0.0000   0.0000   0.0000

          k = 0.0153 0.0153 0.0153 ( 31737 PWs)   bands (ev):

   -74.9716 -70.2022 -42.0304 -42.0304 -40.3638 -36.9854 -36.9854 -36.4592
    -5.6892  -4.8350   6.1672   6.9663   6.9663   8.4711   8.4711   9.2520
    10.2814  10.2814  10.6630  11.8131  11.8131  12.5439  15.6539  16.4734
    16.4734  17.9212  17.9212  18.4248  23.3488  27.5190  27.6533  27.6533

     occupation numbers 
     1.0000   1.0000   1.0000   1.0000   1.0000   1.0000   1.0000   1.0000
     1.0000   1.0000   1.0000   1.0000   1.0000   1.0000   1.0000   1.0000
     1.0000   1.0000   1.0000   1.0000   1.0000   1.0000   0.0000   0.0000
     0.0000   0.0000   0.0000   0.0000   0.0000   0.0000   0.0000   0.0000

          k = 0.0051 0.0051 0.0458 ( 31722 PWs)   bands (ev):

   -74.9707 -70.2012 -42.0396 -42.0327 -40.3623 -36.9978 -36.9884 -36.4573
    -5.4215  -4.8370   6.2885   7.1300   7.1991   7.9594   8.2633   9.2042
     9.4481  10.4763  10.9793  11.1442  11.5038  12.6716  16.1464  16.6168
    16.6602  18.1055  18.2100  19.5498  23.6584  25.5340  26.8479  28.2232

     occupation numbers 
     1.0000   1.0000   1.0000   1.0000   1.0000   1.0000   1.0000   1.0000
     1.0000   1.0000   1.0000   1.0000   1.0000   1.0000   1.0000   1.0000
     1.0000   1.0000   1.0000   1.0000   1.0000   1.0000   0.0000   0.0000
     0.0000   0.0000   0.0000   0.0000   0.0000   0.0000   0.0000   0.0000

          k = 0.0560 0.0560-0.1068 ( 31658 PWs)   bands (ev):

   -74.9689 -70.1990 -42.0579 -42.0373 -40.3592 -37.0226 -36.9945 -36.4534
    -4.9785  -4.6848   6.0490   6.8083   7.3164   7.9736   8.2503   8.6696
     9.4494  10.0979  10.4721  11.0790  11.5274  12.6992  16.1522  16.9116
    17.2605  18.3233  19.8416  20.3306  23.0807  24.6077  24.7893  26.0445

     occupation numbers 
     1.0000   1.0000   1.0000   1.0000   1.0000   1.0000   1.0000   1.0000
     1.0000   1.0000   1.0000   1.0000   1.0000   1.0000   1.0000   1.0000
     1.0000   1.0000   1.0000   1.0000   1.0000   1.0000   0.0000   0.0000
     0.0000   0.0000   0.0000   0.0000   0.0000   0.0000   0.0000   0.0000

          k = 0.0458 0.0458-0.0763 ( 31648 PWs)   bands (ev):

   -74.9680 -70.1979 -42.0671 -42.0395 -40.3577 -37.0350 -36.9975 -36.4514
    -4.7177  -4.6322   5.8317   6.9262   7.2982   7.4504   8.5126   8.5604
     9.4264   9.5643  10.3797  11.4675  11.7464  12.6200  16.2378  17.0339
    17.8813  18.3852  19.4884  20.4131  22.9375  23.1849  25.0098  26.1078

     occupation numbers 
     1.0000   1.0000   1.0000   1.0000   1.0000   1.0000   1.0000   1.0000
     1.0000   1.0000   1.0000   1.0000   1.0000   1.0000   1.0000   1.0000
     1.0000   1.0000   1.0000   1.0000   1.0000   1.0000   0.0000   0.0000
     0.0000   0.0000   0.0000   0.0000   0.0000   0.0000   0.0000   0.0000

          k =-0.0051 0.0356 0.0356 ( 31726 PWs)   bands (ev):

   -74.9707 -70.2012 -42.0396 -42.0327 -40.3622 -36.9978 -36.9884 -36.4574
    -5.3358  -4.9342   6.4703   7.1079   7.1777   8.1591   8.2759   8.7169
     9.5313  10.0687  10.7473  11.4973  11.9472  12.6285  16.1842  16.5993
    17.0229  17.8372  17.9660  19.5028  24.0236  25.7322  26.2543  27.7829

     occupation numbers 
     1.0000   1.0000   1.0000   1.0000   1.0000   1.0000   1.0000   1.0000
     1.0000   1.0000   1.0000   1.0000   1.0000   1.0000   1.0000   1.0000
     1.0000   1.0000   1.0000   1.0000   1.0000   1.0000   0.0000   0.0000
     0.0000   0.0000   0.0000   0.0000   0.0000   0.0000   0.0000   0.0000

          k = 0.0458 0.0865-0.1170 ( 31700 PWs)   bands (ev):

   -74.9694 -70.1995 -42.0516 -42.0378 -40.3600 -37.0141 -36.9953 -36.4544
    -4.9953  -4.8289   6.2313   7.0049   7.3345   7.6633   8.3860   8.8558
     9.3885   9.6354  10.8122  11.0614  11.7653  12.7285  16.0976  16.7541
    17.3688  18.0785  19.4360  20.1396  24.0779  24.3327  25.0057  26.0488

     occupation numbers 
     1.0000   1.0000   1.0000   1.0000   1.0000   1.0000   1.0000   1.0000
     1.0000   1.0000   1.0000   1.0000   1.0000   1.0000   1.0000   1.0000
     1.0000   1.0000   1.0000   1.0000   1.0000   1.0000   0.0000   0.0000
     0.0000   0.0000   0.0000   0.0000   0.0000   0.0000   0.0000   0.0000

          k = 0.0356 0.0763-0.0865 ( 31646 PWs)   bands (ev):

   -74.9680 -70.1979 -42.0624 -42.0442 -40.3577 -37.0286 -37.0039 -36.4514
    -4.7194  -4.6328   6.0930   6.7552   7.1898   7.5950   8.2248   8.6909
     9.1609   9.8421  10.5214  11.2321  11.6475  12.7134  16.2572  16.8175
    18.0083  18.3009  20.2429  20.6099  22.7318  23.4084  24.3409  25.3802

     occupation numbers 
     1.0000   1.0000   1.0000   1.0000   1.0000   1.0000   1.0000   1.0000
     1.0000   1.0000   1.0000   1.0000   1.0000   1.0000   1.0000   1.0000
     1.0000   1.0000   1.0000   1.0000   1.0000   1.0000   0.0000   0.0000
     0.0000   0.0000   0.0000   0.0000   0.0000   0.0000   0.0000   0.0000

          k = 0.0967-0.0661-0.0661 ( 31657 PWs)   bands (ev):

   -74.9689 -70.1990 -42.0579 -42.0373 -40.3592 -37.0226 -36.9945 -36.4534
    -4.8659  -4.8007   6.0143   6.7647   7.3410   8.0574   8.2385   8.6840
     9.4133  10.0162  10.2816  11.4098  11.6064  12.7311  16.1126  16.9059
    17.5004  18.3333  19.1760  20.1208  23.2496  24.1257  25.7142  26.2725

     occupation numbers 
     1.0000   1.0000   1.0000   1.0000   1.0000   1.0000   1.0000   1.0000
     1.0000   1.0000   1.0000   1.0000   1.0000   1.0000   1.0000   1.0000
     1.0000   1.0000   1.0000   1.0000   1.0000   1.0000   0.0000   0.0000
     0.0000   0.0000   0.0000   0.0000   0.0000   0.0000   0.0000   0.0000

          k = 0.0254 0.0254 0.0254 ( 31707 PWs)   bands (ev):

   -74.9716 -70.2022 -42.0304 -42.0304 -40.3637 -36.9854 -36.9854 -36.4594
    -5.4390  -5.1258   6.9651   7.0087   7.0087   8.1568   8.4873   8.4873
    10.0206  10.0206  10.6650  12.0678  12.0678  12.4314  16.4585  16.4585
    16.7652  17.8298  17.8298  17.8412  24.2929  25.7864  28.6505  28.6505

     occupation numbers 
     1.0000   1.0000   1.0000   1.0000   1.0000   1.0000   1.0000   1.0000
     1.0000   1.0000   1.0000   1.0000   1.0000   1.0000   1.0000   1.0000
     1.0000   1.0000   1.0000   1.0000   1.0000   1.0000   0.0000   0.0000
     0.0000   0.0000   0.0000   0.0000   0.0000   0.0000   0.0000   0.0000

          k = 0.0763 0.0763-0.1272 ( 31709 PWs)   bands (ev):

   -74.9707 -70.2012 -42.0396 -42.0327 -40.3622 -36.9978 -36.9884 -36.4574
    -5.1919  -5.0863   6.4524   7.1722   7.3579   7.9998   8.2617   8.7862
     9.3225  10.1950  10.8861  11.3138  11.7898  12.6615  16.1843  16.6105
    16.9372  18.0303  18.5255  18.9484  24.7491  25.4626  26.2780  27.2302

     occupation numbers 
     1.0000   1.0000   1.0000   1.0000   1.0000   1.0000   1.0000   1.0000
     1.0000   1.0000   1.0000   1.0000   1.0000   1.0000   1.0000   1.0000
     1.0000   1.0000   1.0000   1.0000   1.0000   1.0000   0.0000   0.0000
     0.0000   0.0000   0.0000   0.0000   0.0000   0.0000   0.0000   0.0000

     the spin up/dw Fermi energies are    14.4208   14.4208 ev

!    total energy              =    -558.93411844 Ry
     Harris-Foulkes estimate   =    -558.93411844 Ry
     estimated scf accuracy    <          5.7E-12 Ry

     The total energy is the sum of the following terms:

     one-electron contribution =    -275.35655370 Ry
     hartree contribution      =     162.13540880 Ry
     xc contribution           =     -67.83213843 Ry
     ewald contribution        =    -378.02066677 Ry
     Hubbard energy            =       0.13983167 Ry
     smearing contrib. (-TS)   =      -0.00000000 Ry

     total magnetization       =     0.00 Bohr mag/cell
     absolute magnetization    =     7.58 Bohr mag/cell

     convergence has been achieved in  14 iterations

     Writing output data file pwscf.save
 
     init_run     :      5.58s CPU      5.84s WALL (       1 calls)
     electrons    :    210.57s CPU    211.44s WALL (       1 calls)

     Called by init_run:
     wfcinit      :      5.06s CPU      5.17s WALL (       1 calls)
     potinit      :      0.23s CPU      0.36s WALL (       1 calls)

     Called by electrons:
     c_bands      :    175.81s CPU    176.39s WALL (      14 calls)
     sum_band     :     33.06s CPU     33.17s WALL (      14 calls)
     v_of_rho     :      1.43s CPU      1.52s WALL (      15 calls)
     v_h          :      0.04s CPU      0.04s WALL (      15 calls)
     v_xc         :      1.38s CPU      1.41s WALL (      15 calls)
     mix_rho      :      0.16s CPU      0.16s WALL (      14 calls)

     Called by c_bands:
     init_us_2    :      0.42s CPU      0.44s WALL (    1680 calls)
     cegterg      :    174.88s CPU    175.40s WALL (     784 calls)

     Called by sum_band:

     Called by *egterg:
     h_psi        :    166.15s CPU    166.66s WALL (    2668 calls)
     g_psi        :      0.21s CPU      0.21s WALL (    1828 calls)
     cdiaghg      :      5.07s CPU      5.14s WALL (    2612 calls)
     cegterg:over :      2.67s CPU      2.68s WALL (    1828 calls)
     cegterg:upda :      1.53s CPU      1.53s WALL (    1828 calls)
     cegterg:last :      0.61s CPU      0.61s WALL (     784 calls)

     Called by h_psi:
     h_psi:vloc   :    162.89s CPU    163.37s WALL (    2668 calls)
     h_psi:vnl    :      1.89s CPU      1.90s WALL (    2668 calls)
     add_vuspsi   :      0.76s CPU      0.76s WALL (    2668 calls)
     vhpsi        :      0.91s CPU      0.92s WALL (    2668 calls)

     General routines
     calbec       :      1.91s CPU      1.92s WALL (    6176 calls)
     fft          :      0.63s CPU      0.66s WALL (     312 calls)
     fftw         :    180.86s CPU    181.39s WALL (  151982 calls)
     davcio       :      0.00s CPU      1.05s WALL (      56 calls)
 
     Parallel routines
     fft_scatter  :     36.00s CPU     36.09s WALL (  152294 calls)

     Hubbard U routines
     new_ns       :      0.29s CPU      0.30s WALL (      14 calls)
     vhpsi        :      0.91s CPU      0.92s WALL (    2668 calls)
 
     PWSCF        :  3m40.73s CPU     3m47.90s WALL

 
   This run was terminated on:   9:37: 2  25Aug2017            

=------------------------------------------------------------------------------=
   JOB DONE.
=------------------------------------------------------------------------------=
