/usr/common/software/espresso/6.8-scalapack/hsw/intel/bin/pw.x

     Program PWSCF v.6.8 starts on 18Nov2021 at 10:36:23 

     This program is part of the open-source Quantum ESPRESSO suite
     for quantum simulation of materials; please cite
         "P. Giannozzi et al., J. Phys.:Condens. Matter 21 395502 (2009);
         "P. Giannozzi et al., J. Phys.:Condens. Matter 29 465901 (2017);
         "P. Giannozzi et al., J. Chem. Phys. 152 154105 (2020);
          URL http://www.quantum-espresso.org", 
     in publications or presentations arising from this work. More details at
     http://www.quantum-espresso.org/quote

     Parallel version (MPI & OpenMP), running on     512 processor cores
     Number of MPI processes:               512
     Threads/MPI process:                     1

     MPI processes distributed on   128 nodes
     band groups division:  nbgrp     =      16
     R & G space division:  proc/nbgrp/npool/nimage =      32
     126103 MiB available memory on the printing compute node when the environment starts
 
     Reading input from scf.in

     Current dimensions of program PWSCF are:
     Max number of different atomic species (ntypx) = 10
     Max number of k-points (npk) =  40000
     Max angular momentum in pseudopotentials (lmaxx) =  4

     IMPORTANT: XC functional enforced from input :
     Exchange-correlation= PBE0
                           (   6   4   8   4   0   0   0)
     EXX-fraction              =        0.25
     Any further DFT definition will be discarded
     Please, verify this is what you really want

     Message from routine setup :
     BEWARE: nonlinear core correction is not consistent with hybrid XC

     Fixed quantization axis for GGA:     0.000000    0.000000    1.000000
     EXX: q-point mesh:     1    1    1
     EXX: setup a grid of 72 q-points centered on each k-point
     (k+q)-points:
   0.0000000   0.0000000   0.0000000         1    1
   0.0000000   0.0000000  -0.0794488         2    1
   0.0000000   0.1924501  -0.0088276         3    1
   0.0000000   0.1924501  -0.0882765         4    1
   0.0000000   0.3849002  -0.0176553         5    1
   0.0000000   0.3849002  -0.0971041         6    1
   0.0000000  -0.5773503   0.0264829         7    1
   0.0000000  -0.5773503  -0.0529659         8    1
   0.0000000  -0.3849002   0.0176553         9    1
   0.0000000  -0.3849002  -0.0617935        10    1
   0.0000000  -0.1924501   0.0088276        11    1
   0.0000000  -0.1924501  -0.0706212        12    1
   0.1666667   0.0962250   0.0088276        13    1
   0.1666667   0.0962250  -0.0706212        14    1
   0.1666667   0.2886751  -0.0000000        15    1
   0.1666667   0.2886751  -0.0794488        16    1
   0.1666667   0.4811252  -0.0088276        17    1
   0.1666667   0.4811252  -0.0882765        18    1
   0.1666667  -0.4811252   0.0353106        19    1
   0.1666667  -0.4811252  -0.0441382        20    1
   0.1666667  -0.2886751   0.0264829        21    1
   0.1666667  -0.2886751  -0.0529659        22    1
   0.1666667  -0.0962250   0.0176553        23    1
   0.1666667  -0.0962250  -0.0617935        24    1
   0.3333333   0.1924501   0.0176553        25    1
   0.3333333   0.1924501  -0.0617935        26    1
   0.3333333   0.3849002   0.0088276        27    1
   0.3333333   0.3849002  -0.0706212        28    1
   0.3333333   0.5773503  -0.0000000        29    1
   0.3333333   0.5773503  -0.0794488        30    1
   0.3333333  -0.3849002   0.0441382        31    1
   0.3333333  -0.3849002  -0.0353106        32    1
   0.3333333  -0.1924501   0.0353106        33    1
   0.3333333  -0.1924501  -0.0441382        34    1
   0.3333333   0.0000000   0.0264829        35    1
   0.3333333   0.0000000  -0.0529659        36    1
  -0.5000000  -0.2886751  -0.0264829        37    1
  -0.5000000  -0.2886751  -0.1059318        38    1
  -0.5000000  -0.0962250  -0.0353106        39    1
  -0.5000000  -0.0962250  -0.1147594        40    1
  -0.5000000   0.0962250  -0.0441382        41    1
  -0.5000000   0.0962250  -0.1235871        42    1
  -0.5000000  -0.8660254   0.0000000        43    1
  -0.5000000  -0.8660254  -0.0794488        44    1
  -0.5000000  -0.6735753  -0.0088276        45    1
  -0.5000000  -0.6735753  -0.0882765        46    1
  -0.5000000  -0.4811252  -0.0176553        47    1
  -0.5000000  -0.4811252  -0.0971041        48    1
  -0.3333333  -0.1924501  -0.0176553        49    1
  -0.3333333  -0.1924501  -0.0971041        50    1
  -0.3333333  -0.0000000  -0.0264829        51    1
  -0.3333333  -0.0000000  -0.1059318        52    1
  -0.3333333   0.1924501  -0.0353106        53    1
  -0.3333333   0.1924501  -0.1147594        54    1
  -0.3333333  -0.7698004   0.0088276        55    1
  -0.3333333  -0.7698004  -0.0706212        56    1
  -0.3333333  -0.5773503   0.0000000        57    1
  -0.3333333  -0.5773503  -0.0794488        58    1
  -0.3333333  -0.3849002  -0.0088276        59    1
  -0.3333333  -0.3849002  -0.0882765        60    1
  -0.1666667  -0.0962250  -0.0088276        61    1
  -0.1666667  -0.0962250  -0.0882765        62    1
  -0.1666667   0.0962250  -0.0176553        63    1
  -0.1666667   0.0962250  -0.0971041        64    1
  -0.1666667   0.2886751  -0.0264829        65    1
  -0.1666667   0.2886751  -0.1059318        66    1
  -0.1666667  -0.6735753   0.0176553        67    1
  -0.1666667  -0.6735753  -0.0617935        68    1
  -0.1666667  -0.4811252   0.0088276        69    1
  -0.1666667  -0.4811252  -0.0706212        70    1
  -0.1666667  -0.2886751   0.0000000        71    1
  -0.1666667  -0.2886751  -0.0794488        72    1

     Subspace diagonalization in iterative solution of the eigenvalue problem:
     one sub-group per band group will be used
     scalapack distributed-memory algorithm (size of sub-group:  5*  5 procs)

 
     Parallelization info
     --------------------
     sticks:   dense  smooth     PW     G-vecs:    dense   smooth      PW
     Min         103     103     29                30497    30497    4502
     Max         104     104     30                30526    30526    4520
     Sum        3319    3319    931               976437   976437  144443
 
     Using Slab Decomposition
 


     bravais-lattice index     =            0
     lattice parameter (alat)  =       8.1895  a.u.
     unit-cell volume          =    2993.5487 (a.u.)^3
     number of atoms/cell      =           14
     number of atomic types    =            4
     number of electrons       =       218.00
     number of Kohn-Sham states=          224
     kinetic-energy cutoff     =     180.0000  Ry
     charge density cutoff     =     720.0000  Ry
     cutoff for Fock operator  =     720.0000  Ry
     scf convergence threshold =      5.0E-04
     mixing beta               =       0.2500
     number of iterations used =            4  plain     mixing
     Exchange-correlation= PBE0
                           (   6   4   8   4   0   0   0)
     EXX-fraction              =        0.25
     Noncollinear calculation with spin-orbit


     celldm(1)=   8.189506  celldm(2)=   0.000000  celldm(3)=   0.000000
     celldm(4)=   0.000000  celldm(5)=   0.000000  celldm(6)=   0.000000

     crystal axes: (cart. coord. in units of alat)
               a(1) = (   1.000000   0.000000   0.000000 )  
               a(2) = (  -0.500000   0.866025   0.000000 )  
               a(3) = (  -0.500000   0.288675   6.293360 )  

     reciprocal axes: (cart. coord. in units 2 pi/alat)
               b(1) = (  1.000000  0.577350  0.052966 )  
               b(2) = (  0.000000  1.154701 -0.052966 )  
               b(3) = (  0.000000  0.000000  0.158898 )  


     PseudoPot. # 1 for Bi read from file:
     ./Bi.upf
     MD5 check sum: 260977096fd1df4b879f04c556a28fcb
     Pseudo is Norm-conserving + core correction, Zval = 15.0
     Generated using ONCVPSP code by D. R. Hamann
     Using radial grid of 1562 points, 10 beta functions with: 
                l(1) =   0
                l(2) =   0
                l(3) =   1
                l(4) =   1
                l(5) =   1
                l(6) =   1
                l(7) =   2
                l(8) =   2
                l(9) =   2
               l(10) =   2

     PseudoPot. # 2 for Mn read from file:
     ./Mn.upf
     MD5 check sum: ae71e1481ef25a952ba54bed1e0db183
     Pseudo is Norm-conserving + core correction, Zval = 15.0
     Generated using ONCVPSP code by D. R. Hamann
     Using radial grid of 1464 points,  6 beta functions with: 
                l(1) =   0
                l(2) =   0
                l(3) =   1
                l(4) =   1
                l(5) =   2
                l(6) =   2

     PseudoPot. # 3 for Mn read from file:
     ./Mn.upf
     MD5 check sum: ae71e1481ef25a952ba54bed1e0db183
     Pseudo is Norm-conserving + core correction, Zval = 15.0
     Generated using ONCVPSP code by D. R. Hamann
     Using radial grid of 1464 points,  6 beta functions with: 
                l(1) =   0
                l(2) =   0
                l(3) =   1
                l(4) =   1
                l(5) =   2
                l(6) =   2

     PseudoPot. # 4 for Te read from file:
     ./Te.upf
     MD5 check sum: d198e370297ac1d7edee156d0fe975c4
     Pseudo is Norm-conserving + core correction, Zval = 16.0
     Generated using ONCVPSP code by D. R. Hamann
     Using radial grid of 1324 points, 10 beta functions with: 
                l(1) =   0
                l(2) =   0
                l(3) =   1
                l(4) =   1
                l(5) =   1
                l(6) =   1
                l(7) =   2
                l(8) =   2
                l(9) =   2
               l(10) =   2

     atomic species   valence    mass     pseudopotential
        Bi            15.00   208.98000     Bi( 1.00)
        Mn1           15.00    54.93800     Mn( 1.00)
        Mn2           15.00    54.93800     Mn( 1.00)
        Te            16.00   127.60000     Te( 1.00)

     No symmetry found


                                    s                        frac. trans.

      isym =  1     identity                                     

 Time Reversal            0
 cryst.   s( 1) = (     1          0          0      )
                  (     0          1          0      )
                  (     0          0          1      )

 cart.    s( 1) = (  1.0000000  0.0000000 -0.0000000 )
                  (  0.0000000  1.0000000  0.0000000 )
                  (  0.0000000  0.0000000  1.0000000 )


   Cartesian axes

     site n.     atom                  positions (alat units)
         1           Mn1 tau(   1) = (   0.0000000   0.0000000   0.0000000  )
         2           Mn2 tau(   2) = (   0.0000000   0.5773503   3.1466799  )
         3           Bi  tau(   3) = (  -0.5000000   0.8660254   4.0108841  )
         4           Bi  tau(   4) = (   0.5000000   0.2886751   0.8642042  )
         5           Bi  tau(   5) = (   0.5000000   0.2886751   2.2824757  )
         6           Bi  tau(   6) = (  -0.5000000   0.8660254   5.4291556  )
         7           Te  tau(   7) = (  -0.5000000   0.8660254   1.2586405  )
         8           Te  tau(   8) = (   0.5000000   0.2886751   5.0347193  )
         9           Te  tau(   9) = (   0.0000000   0.5773503   4.4053204  )
        10           Te  tau(  10) = (   0.0000000   0.5773503   1.8880394  )
        11           Te  tau(  11) = (  -0.5000000   0.8660254   2.7787701  )
        12           Te  tau(  12) = (   0.5000000   0.2886751   3.5145897  )
        13           Te  tau(  13) = (   0.0000000   0.5773503   5.9254500  )
        14           Te  tau(  14) = (   0.0000000   0.5773503   0.3679098  )

   Crystallographic axes

     site n.     atom                  positions (cryst. coord.)
         1           Mn1 tau(   1) = (  0.0000000  0.0000000  0.0000000  )
         2           Mn2 tau(   2) = (  0.5000000  0.5000000  0.5000000  )
         3           Bi  tau(   3) = (  0.2124400  0.7875600  0.6373200  )
         4           Bi  tau(   4) = (  0.7124400  0.2875600  0.1373200  )
         5           Bi  tau(   5) = (  0.7875600  0.2124400  0.3626800  )
         6           Bi  tau(   6) = (  0.2875600  0.7124400  0.8626800  )
         7           Te  tau(   7) = (  0.0666650  0.9333350  0.1999950  )
         8           Te  tau(   8) = (  0.9333350  0.0666650  0.8000050  )
         9           Te  tau(   9) = (  0.5666650  0.4333350  0.6999950  )
        10           Te  tau(  10) = (  0.4333350  0.5666650  0.3000050  )
        11           Te  tau(  11) = (  0.1471800  0.8528200  0.4415400  )
        12           Te  tau(  12) = (  0.8528200  0.1471800  0.5584600  )
        13           Te  tau(  13) = (  0.6471800  0.3528200  0.9415400  )
        14           Te  tau(  14) = (  0.3528200  0.6471800  0.0584600  )

     number of k points=    72
                       cart. coord. in units 2pi/alat
        k(    1) = (   0.0000000   0.0000000   0.0000000), wk =   0.0138889
        k(    2) = (   0.0000000   0.0000000  -0.0794488), wk =   0.0138889
        k(    3) = (   0.0000000   0.1924501  -0.0088276), wk =   0.0138889
        k(    4) = (   0.0000000   0.1924501  -0.0882765), wk =   0.0138889
        k(    5) = (   0.0000000   0.3849002  -0.0176553), wk =   0.0138889
        k(    6) = (   0.0000000   0.3849002  -0.0971041), wk =   0.0138889
        k(    7) = (   0.0000000  -0.5773503   0.0264829), wk =   0.0138889
        k(    8) = (   0.0000000  -0.5773503  -0.0529659), wk =   0.0138889
        k(    9) = (   0.0000000  -0.3849002   0.0176553), wk =   0.0138889
        k(   10) = (   0.0000000  -0.3849002  -0.0617935), wk =   0.0138889
        k(   11) = (   0.0000000  -0.1924501   0.0088276), wk =   0.0138889
        k(   12) = (   0.0000000  -0.1924501  -0.0706212), wk =   0.0138889
        k(   13) = (   0.1666667   0.0962250   0.0088276), wk =   0.0138889
        k(   14) = (   0.1666667   0.0962250  -0.0706212), wk =   0.0138889
        k(   15) = (   0.1666667   0.2886751  -0.0000000), wk =   0.0138889
        k(   16) = (   0.1666667   0.2886751  -0.0794488), wk =   0.0138889
        k(   17) = (   0.1666667   0.4811252  -0.0088276), wk =   0.0138889
        k(   18) = (   0.1666667   0.4811252  -0.0882765), wk =   0.0138889
        k(   19) = (   0.1666667  -0.4811252   0.0353106), wk =   0.0138889
        k(   20) = (   0.1666667  -0.4811252  -0.0441382), wk =   0.0138889
        k(   21) = (   0.1666667  -0.2886751   0.0264829), wk =   0.0138889
        k(   22) = (   0.1666667  -0.2886751  -0.0529659), wk =   0.0138889
        k(   23) = (   0.1666667  -0.0962250   0.0176553), wk =   0.0138889
        k(   24) = (   0.1666667  -0.0962250  -0.0617935), wk =   0.0138889
        k(   25) = (   0.3333333   0.1924501   0.0176553), wk =   0.0138889
        k(   26) = (   0.3333333   0.1924501  -0.0617935), wk =   0.0138889
        k(   27) = (   0.3333333   0.3849002   0.0088276), wk =   0.0138889
        k(   28) = (   0.3333333   0.3849002  -0.0706212), wk =   0.0138889
        k(   29) = (   0.3333333   0.5773503  -0.0000000), wk =   0.0138889
        k(   30) = (   0.3333333   0.5773503  -0.0794488), wk =   0.0138889
        k(   31) = (   0.3333333  -0.3849002   0.0441382), wk =   0.0138889
        k(   32) = (   0.3333333  -0.3849002  -0.0353106), wk =   0.0138889
        k(   33) = (   0.3333333  -0.1924501   0.0353106), wk =   0.0138889
        k(   34) = (   0.3333333  -0.1924501  -0.0441382), wk =   0.0138889
        k(   35) = (   0.3333333   0.0000000   0.0264829), wk =   0.0138889
        k(   36) = (   0.3333333   0.0000000  -0.0529659), wk =   0.0138889
        k(   37) = (  -0.5000000  -0.2886751  -0.0264829), wk =   0.0138889
        k(   38) = (  -0.5000000  -0.2886751  -0.1059318), wk =   0.0138889
        k(   39) = (  -0.5000000  -0.0962250  -0.0353106), wk =   0.0138889
        k(   40) = (  -0.5000000  -0.0962250  -0.1147594), wk =   0.0138889
        k(   41) = (  -0.5000000   0.0962250  -0.0441382), wk =   0.0138889
        k(   42) = (  -0.5000000   0.0962250  -0.1235871), wk =   0.0138889
        k(   43) = (  -0.5000000  -0.8660254   0.0000000), wk =   0.0138889
        k(   44) = (  -0.5000000  -0.8660254  -0.0794488), wk =   0.0138889
        k(   45) = (  -0.5000000  -0.6735753  -0.0088276), wk =   0.0138889
        k(   46) = (  -0.5000000  -0.6735753  -0.0882765), wk =   0.0138889
        k(   47) = (  -0.5000000  -0.4811252  -0.0176553), wk =   0.0138889
        k(   48) = (  -0.5000000  -0.4811252  -0.0971041), wk =   0.0138889
        k(   49) = (  -0.3333333  -0.1924501  -0.0176553), wk =   0.0138889
        k(   50) = (  -0.3333333  -0.1924501  -0.0971041), wk =   0.0138889
        k(   51) = (  -0.3333333  -0.0000000  -0.0264829), wk =   0.0138889
        k(   52) = (  -0.3333333  -0.0000000  -0.1059318), wk =   0.0138889
        k(   53) = (  -0.3333333   0.1924501  -0.0353106), wk =   0.0138889
        k(   54) = (  -0.3333333   0.1924501  -0.1147594), wk =   0.0138889
        k(   55) = (  -0.3333333  -0.7698004   0.0088276), wk =   0.0138889
        k(   56) = (  -0.3333333  -0.7698004  -0.0706212), wk =   0.0138889
        k(   57) = (  -0.3333333  -0.5773503   0.0000000), wk =   0.0138889
        k(   58) = (  -0.3333333  -0.5773503  -0.0794488), wk =   0.0138889
        k(   59) = (  -0.3333333  -0.3849002  -0.0088276), wk =   0.0138889
        k(   60) = (  -0.3333333  -0.3849002  -0.0882765), wk =   0.0138889
        k(   61) = (  -0.1666667  -0.0962250  -0.0088276), wk =   0.0138889
        k(   62) = (  -0.1666667  -0.0962250  -0.0882765), wk =   0.0138889
        k(   63) = (  -0.1666667   0.0962250  -0.0176553), wk =   0.0138889
        k(   64) = (  -0.1666667   0.0962250  -0.0971041), wk =   0.0138889
        k(   65) = (  -0.1666667   0.2886751  -0.0264829), wk =   0.0138889
        k(   66) = (  -0.1666667   0.2886751  -0.1059318), wk =   0.0138889
        k(   67) = (  -0.1666667  -0.6735753   0.0176553), wk =   0.0138889
        k(   68) = (  -0.1666667  -0.6735753  -0.0617935), wk =   0.0138889
        k(   69) = (  -0.1666667  -0.4811252   0.0088276), wk =   0.0138889
        k(   70) = (  -0.1666667  -0.4811252  -0.0706212), wk =   0.0138889
        k(   71) = (  -0.1666667  -0.2886751   0.0000000), wk =   0.0138889
        k(   72) = (  -0.1666667  -0.2886751  -0.0794488), wk =   0.0138889

                       cryst. coord.
        k(    1) = (   0.0000000   0.0000000   0.0000000), wk =   0.0138889
        k(    2) = (   0.0000000   0.0000000  -0.5000000), wk =   0.0138889
        k(    3) = (   0.0000000   0.1666667   0.0000000), wk =   0.0138889
        k(    4) = (   0.0000000   0.1666667  -0.5000000), wk =   0.0138889
        k(    5) = (   0.0000000   0.3333333   0.0000000), wk =   0.0138889
        k(    6) = (   0.0000000   0.3333333  -0.5000000), wk =   0.0138889
        k(    7) = (   0.0000000  -0.5000000  -0.0000000), wk =   0.0138889
        k(    8) = (   0.0000000  -0.5000000  -0.5000000), wk =   0.0138889
        k(    9) = (   0.0000000  -0.3333333   0.0000000), wk =   0.0138889
        k(   10) = (   0.0000000  -0.3333333  -0.5000000), wk =   0.0138889
        k(   11) = (   0.0000000  -0.1666667  -0.0000000), wk =   0.0138889
        k(   12) = (   0.0000000  -0.1666667  -0.5000000), wk =   0.0138889
        k(   13) = (   0.1666667   0.0000000  -0.0000000), wk =   0.0138889
        k(   14) = (   0.1666667   0.0000000  -0.5000000), wk =   0.0138889
        k(   15) = (   0.1666667   0.1666667  -0.0000000), wk =   0.0138889
        k(   16) = (   0.1666667   0.1666667  -0.5000000), wk =   0.0138889
        k(   17) = (   0.1666667   0.3333333  -0.0000000), wk =   0.0138889
        k(   18) = (   0.1666667   0.3333333  -0.5000000), wk =   0.0138889
        k(   19) = (   0.1666667  -0.5000000   0.0000000), wk =   0.0138889
        k(   20) = (   0.1666667  -0.5000000  -0.5000000), wk =   0.0138889
        k(   21) = (   0.1666667  -0.3333333   0.0000000), wk =   0.0138889
        k(   22) = (   0.1666667  -0.3333333  -0.5000000), wk =   0.0138889
        k(   23) = (   0.1666667  -0.1666667  -0.0000000), wk =   0.0138889
        k(   24) = (   0.1666667  -0.1666667  -0.5000000), wk =   0.0138889
        k(   25) = (   0.3333333   0.0000000  -0.0000000), wk =   0.0138889
        k(   26) = (   0.3333333   0.0000000  -0.5000000), wk =   0.0138889
        k(   27) = (   0.3333333   0.1666667  -0.0000000), wk =   0.0138889
        k(   28) = (   0.3333333   0.1666667  -0.5000000), wk =   0.0138889
        k(   29) = (   0.3333333   0.3333333  -0.0000000), wk =   0.0138889
        k(   30) = (   0.3333333   0.3333333  -0.5000000), wk =   0.0138889
        k(   31) = (   0.3333333  -0.5000000  -0.0000000), wk =   0.0138889
        k(   32) = (   0.3333333  -0.5000000  -0.5000000), wk =   0.0138889
        k(   33) = (   0.3333333  -0.3333333  -0.0000000), wk =   0.0138889
        k(   34) = (   0.3333333  -0.3333333  -0.5000000), wk =   0.0138889
        k(   35) = (   0.3333333  -0.1666667  -0.0000000), wk =   0.0138889
        k(   36) = (   0.3333333  -0.1666667  -0.5000000), wk =   0.0138889
        k(   37) = (  -0.5000000   0.0000000   0.0000000), wk =   0.0138889
        k(   38) = (  -0.5000000   0.0000000  -0.5000000), wk =   0.0138889
        k(   39) = (  -0.5000000   0.1666667   0.0000000), wk =   0.0138889
        k(   40) = (  -0.5000000   0.1666667  -0.5000000), wk =   0.0138889
        k(   41) = (  -0.5000000   0.3333333   0.0000000), wk =   0.0138889
        k(   42) = (  -0.5000000   0.3333333  -0.5000000), wk =   0.0138889
        k(   43) = (  -0.5000000  -0.5000000   0.0000000), wk =   0.0138889
        k(   44) = (  -0.5000000  -0.5000000  -0.5000000), wk =   0.0138889
        k(   45) = (  -0.5000000  -0.3333333   0.0000000), wk =   0.0138889
        k(   46) = (  -0.5000000  -0.3333333  -0.5000000), wk =   0.0138889
        k(   47) = (  -0.5000000  -0.1666667   0.0000000), wk =   0.0138889
        k(   48) = (  -0.5000000  -0.1666667  -0.5000000), wk =   0.0138889
        k(   49) = (  -0.3333333   0.0000000   0.0000000), wk =   0.0138889
        k(   50) = (  -0.3333333   0.0000000  -0.5000000), wk =   0.0138889
        k(   51) = (  -0.3333333   0.1666667   0.0000000), wk =   0.0138889
        k(   52) = (  -0.3333333   0.1666667  -0.5000000), wk =   0.0138889
        k(   53) = (  -0.3333333   0.3333333   0.0000000), wk =   0.0138889
        k(   54) = (  -0.3333333   0.3333333  -0.5000000), wk =   0.0138889
        k(   55) = (  -0.3333333  -0.5000000  -0.0000000), wk =   0.0138889
        k(   56) = (  -0.3333333  -0.5000000  -0.5000000), wk =   0.0138889
        k(   57) = (  -0.3333333  -0.3333333   0.0000000), wk =   0.0138889
        k(   58) = (  -0.3333333  -0.3333333  -0.5000000), wk =   0.0138889
        k(   59) = (  -0.3333333  -0.1666667   0.0000000), wk =   0.0138889
        k(   60) = (  -0.3333333  -0.1666667  -0.5000000), wk =   0.0138889
        k(   61) = (  -0.1666667   0.0000000   0.0000000), wk =   0.0138889
        k(   62) = (  -0.1666667   0.0000000  -0.5000000), wk =   0.0138889
        k(   63) = (  -0.1666667   0.1666667  -0.0000000), wk =   0.0138889
        k(   64) = (  -0.1666667   0.1666667  -0.5000000), wk =   0.0138889
        k(   65) = (  -0.1666667   0.3333333   0.0000000), wk =   0.0138889
        k(   66) = (  -0.1666667   0.3333333  -0.5000000), wk =   0.0138889
        k(   67) = (  -0.1666667  -0.5000000   0.0000000), wk =   0.0138889
        k(   68) = (  -0.1666667  -0.5000000  -0.5000000), wk =   0.0138889
        k(   69) = (  -0.1666667  -0.3333333   0.0000000), wk =   0.0138889
        k(   70) = (  -0.1666667  -0.3333333  -0.5000000), wk =   0.0138889
        k(   71) = (  -0.1666667  -0.1666667  -0.0000000), wk =   0.0138889
        k(   72) = (  -0.1666667  -0.1666667  -0.5000000), wk =   0.0138889

     Dense  grid:   976437 G-vectors     FFT dimensions: (  72,  72, 450)

     Dynamical RAM for                 wfc:      26.08 MB

     Dynamical RAM for     wfc (w. buffer):    1903.77 MB

     Dynamical RAM for                 EXX:    3878.30 MB

     Dynamical RAM for           str. fact:       1.86 MB

     Dynamical RAM for           local pot:       0.00 MB

     Dynamical RAM for          nlocal pot:      25.85 MB

     Dynamical RAM for                qrad:      23.62 MB

     Dynamical RAM for          rho,v,vnew:      12.70 MB

     Dynamical RAM for               rhoin:       4.23 MB

     Dynamical RAM for            rho*nmix:      14.89 MB

     Dynamical RAM for           G-vectors:       1.98 MB

     Dynamical RAM for          h,s,v(r/c):       0.36 MB

     Dynamical RAM for          <psi|beta>:       3.04 MB

     Dynamical RAM for                 psi:      52.16 MB

     Dynamical RAM for                hpsi:      52.16 MB

     Dynamical RAM for      wfcinit/wfcrot:      46.21 MB

     Estimated static dynamical RAM per process >       5.72 GB

     Estimated max dynamical RAM per process >       5.84 GB

     Estimated total dynamical RAM >    2991.01 GB
     Generating pointlists ...
     new r_m :   0.2884 (alat units)  2.3621 (a.u.) for type    1
     new r_m :   0.2824 (alat units)  2.3127 (a.u.) for type    2
     new r_m :   0.2824 (alat units)  2.3127 (a.u.) for type    3
     new r_m :   0.2824 (alat units)  2.3127 (a.u.) for type    4

     The initial density is read from file :
     pwscf_output/pwscf.save/charge-density


 ==============================================================================
     atom number    1 relative position :    0.0000   0.0000   0.0000
     charge :    13.611520  (integrated on a sphere of radius 0.282)
     magnetization :          0.000053   -0.000202    4.497961
     magnetization/charge:    0.000004   -0.000015    0.330453
     polar coord.: r, theta, phi [deg] :     4.497961    0.002661  -75.387862

 ==============================================================================

 ==============================================================================
     atom number    2 relative position :    0.0000   0.5774   3.1467
     charge :    13.610124  (integrated on a sphere of radius 0.282)
     magnetization :         -0.000057   -0.000176   -4.497821
     magnetization/charge:   -0.000004   -0.000013   -0.330476
     polar coord.: r, theta, phi [deg] :     4.497821  179.997648 -107.886124

 ==============================================================================

 ==============================================================================
     atom number    3 relative position :   -0.5000   0.8660   4.0109
     charge :    12.607151  (integrated on a sphere of radius 0.288)
     magnetization :          0.008099    0.001019   -0.014752
     magnetization/charge:    0.000642    0.000081   -0.001170
     polar coord.: r, theta, phi [deg] :     0.016860  151.041825    7.173286

 ==============================================================================

 ==============================================================================
     atom number    4 relative position :    0.5000   0.2887   0.8642
     charge :    12.608660  (integrated on a sphere of radius 0.288)
     magnetization :         -0.007632    0.000884    0.014797
     magnetization/charge:   -0.000605    0.000070    0.001174
     polar coord.: r, theta, phi [deg] :     0.016673   27.440062  173.392520

 ==============================================================================

 ==============================================================================
     atom number    5 relative position :    0.5000   0.2887   2.2825
     charge :    12.607776  (integrated on a sphere of radius 0.288)
     magnetization :         -0.007489    0.001114   -0.014745
     magnetization/charge:   -0.000594    0.000088   -0.001170
     polar coord.: r, theta, phi [deg] :     0.016575  152.820195  171.536276

 ==============================================================================

 ==============================================================================
     atom number    6 relative position :   -0.5000   0.8660   5.4292
     charge :    12.607988  (integrated on a sphere of radius 0.288)
     magnetization :          0.007978    0.000939    0.014620
     magnetization/charge:    0.000633    0.000075    0.001160
     polar coord.: r, theta, phi [deg] :     0.016681   28.787898    6.715847

 ==============================================================================

 ==============================================================================
     atom number    7 relative position :   -0.5000   0.8660   1.2586
     charge :    13.782207  (integrated on a sphere of radius 0.282)
     magnetization :         -0.003633    0.000956    0.042338
     magnetization/charge:   -0.000264    0.000069    0.003072
     polar coord.: r, theta, phi [deg] :     0.042504    5.070488  165.255942

 ==============================================================================

 ==============================================================================
     atom number    8 relative position :    0.5000   0.2887   5.0347
     charge :    13.780282  (integrated on a sphere of radius 0.282)
     magnetization :          0.003914    0.000596    0.042201
     magnetization/charge:    0.000284    0.000043    0.003062
     polar coord.: r, theta, phi [deg] :     0.042386    5.359030    8.661172

 ==============================================================================

 ==============================================================================
     atom number    9 relative position :    0.0000   0.5774   4.4053
     charge :    13.781910  (integrated on a sphere of radius 0.282)
     magnetization :          0.003521    0.000492   -0.042606
     magnetization/charge:    0.000256    0.000036   -0.003091
     polar coord.: r, theta, phi [deg] :     0.042754  175.229530    7.945672

 ==============================================================================

 ==============================================================================
     atom number   10 relative position :    0.0000   0.5774   1.8880
     charge :    13.782007  (integrated on a sphere of radius 0.282)
     magnetization :         -0.003970    0.000763   -0.042273
     magnetization/charge:   -0.000288    0.000055   -0.003067
     polar coord.: r, theta, phi [deg] :     0.042466  174.536772  169.117578

 ==============================================================================

 ==============================================================================
     atom number   11 relative position :   -0.5000   0.8660   2.7788
     charge :    13.860552  (integrated on a sphere of radius 0.282)
     magnetization :         -0.002988    0.000431   -0.006011
     magnetization/charge:   -0.000216    0.000031   -0.000434
     polar coord.: r, theta, phi [deg] :     0.006726  153.334086  171.790151

 ==============================================================================

 ==============================================================================
     atom number   12 relative position :    0.5000   0.2887   3.5146
     charge :    13.860094  (integrated on a sphere of radius 0.282)
     magnetization :          0.003020    0.000441   -0.005904
     magnetization/charge:    0.000218    0.000032   -0.000426
     polar coord.: r, theta, phi [deg] :     0.006646  152.664001    8.304148

 ==============================================================================

 ==============================================================================
     atom number   13 relative position :    0.0000   0.5774   5.9254
     charge :    13.861567  (integrated on a sphere of radius 0.282)
     magnetization :          0.003142    0.000402    0.006587
     magnetization/charge:    0.000227    0.000029    0.000475
     polar coord.: r, theta, phi [deg] :     0.007309   25.681510    7.290202

 ==============================================================================

 ==============================================================================
     atom number   14 relative position :    0.0000   0.5774   0.3679
     charge :    13.860844  (integrated on a sphere of radius 0.282)
     magnetization :         -0.002817    0.000493    0.006621
     magnetization/charge:   -0.000203    0.000036    0.000478
     polar coord.: r, theta, phi [deg] :     0.007212   23.362278  170.072876

 ==============================================================================
     Starting wfcs are  256 randomized atomic wfcs

     total cpu time spent up to now is       49.0 secs

     Self-consistent Calculation

     iteration #  1     ecut=   180.00 Ry     beta= 0.25
     Davidson diagonalization with overlap

---- Real-time Memory Report at c_bands before calling an iterative solver
          2177 MiB given to the printing process from OS
             0 MiB allocation reported by mallinfo(arena+hblkhd)
        117497 MiB available memory on the node where the printing process lives
------------------
     c_bands:  2 eigenvalues not converged
     c_bands:  1 eigenvalues not converged
     c_bands:  3 eigenvalues not converged
     c_bands:  3 eigenvalues not converged
     c_bands:  3 eigenvalues not converged
     c_bands:  3 eigenvalues not converged
     c_bands:  3 eigenvalues not converged
     c_bands:  3 eigenvalues not converged
     c_bands:  2 eigenvalues not converged
     c_bands:  2 eigenvalues not converged
     c_bands:  2 eigenvalues not converged
     c_bands:  1 eigenvalues not converged
     c_bands:  2 eigenvalues not converged
     c_bands:  3 eigenvalues not converged
     c_bands:  2 eigenvalues not converged
     c_bands:  1 eigenvalues not converged
     c_bands:  2 eigenvalues not converged
     c_bands:  1 eigenvalues not converged
     c_bands:  4 eigenvalues not converged
     c_bands:  4 eigenvalues not converged
     c_bands:  1 eigenvalues not converged
     c_bands:  2 eigenvalues not converged
     c_bands:  3 eigenvalues not converged
     c_bands:  4 eigenvalues not converged
     c_bands:  3 eigenvalues not converged
     c_bands:  1 eigenvalues not converged
     c_bands:  1 eigenvalues not converged
     c_bands:  4 eigenvalues not converged
     c_bands:  4 eigenvalues not converged
     c_bands:  3 eigenvalues not converged
     c_bands:  4 eigenvalues not converged
     c_bands:  4 eigenvalues not converged
     c_bands:  3 eigenvalues not converged
     c_bands:  3 eigenvalues not converged
     c_bands:  3 eigenvalues not converged
     c_bands:  1 eigenvalues not converged
     c_bands:  1 eigenvalues not converged
     c_bands:  4 eigenvalues not converged
     c_bands:  2 eigenvalues not converged
     c_bands:  2 eigenvalues not converged
     c_bands:  4 eigenvalues not converged
     c_bands:  2 eigenvalues not converged
     c_bands:  3 eigenvalues not converged
     c_bands:  1 eigenvalues not converged
     c_bands:  3 eigenvalues not converged
     c_bands:  4 eigenvalues not converged
     c_bands:  3 eigenvalues not converged
     c_bands:  3 eigenvalues not converged
     c_bands:  4 eigenvalues not converged
     c_bands:  4 eigenvalues not converged
     c_bands:  1 eigenvalues not converged
     c_bands:  2 eigenvalues not converged
     c_bands:  3 eigenvalues not converged
     c_bands:  1 eigenvalues not converged
     c_bands:  2 eigenvalues not converged
     c_bands:  1 eigenvalues not converged
     c_bands:  1 eigenvalues not converged
     c_bands:  2 eigenvalues not converged
     c_bands:  4 eigenvalues not converged
     c_bands:  4 eigenvalues not converged
     c_bands:  3 eigenvalues not converged
     c_bands:  1 eigenvalues not converged
     c_bands:  3 eigenvalues not converged
     c_bands:  1 eigenvalues not converged
     c_bands:  2 eigenvalues not converged
     c_bands:  4 eigenvalues not converged
     ethr =  1.00E-05,  avg # of iterations = 19.7

     total cpu time spent up to now is      548.2 secs

     total energy              =   -2768.05377457 Ry
     estimated scf accuracy    <       0.31686984 Ry

     total magnetization       =    -0.00    -0.02    -0.03 Bohr mag/cell
     absolute magnetization    =    11.42 Bohr mag/cell

     iteration #  2     ecut=   180.00 Ry     beta= 0.25
     Davidson diagonalization with overlap

---- Real-time Memory Report at c_bands before calling an iterative solver
          2254 MiB given to the printing process from OS
             0 MiB allocation reported by mallinfo(arena+hblkhd)
        117582 MiB available memory on the node where the printing process lives
------------------
     c_bands:  1 eigenvalues not converged
     c_bands:  1 eigenvalues not converged
     c_bands:  1 eigenvalues not converged
     c_bands:  1 eigenvalues not converged
     c_bands:  3 eigenvalues not converged
     c_bands:  1 eigenvalues not converged
     ethr =  1.45E-04,  avg # of iterations = 17.2

     total cpu time spent up to now is      824.8 secs

     total energy              =   -2767.92979133 Ry
     estimated scf accuracy    <       4.53656884 Ry

     total magnetization       =     0.03    -0.02    -0.05 Bohr mag/cell
     absolute magnetization    =    11.44 Bohr mag/cell

     iteration #  3     ecut=   180.00 Ry     beta= 0.25
     Davidson diagonalization with overlap

---- Real-time Memory Report at c_bands before calling an iterative solver
          2271 MiB given to the printing process from OS
             0 MiB allocation reported by mallinfo(arena+hblkhd)
        117552 MiB available memory on the node where the printing process lives
------------------
     c_bands:  1 eigenvalues not converged
     c_bands:  2 eigenvalues not converged
     c_bands:  2 eigenvalues not converged
     c_bands:  3 eigenvalues not converged
     c_bands:  2 eigenvalues not converged
     c_bands:  4 eigenvalues not converged
     c_bands:  4 eigenvalues not converged
     c_bands:  1 eigenvalues not converged
     c_bands:  3 eigenvalues not converged
     c_bands:  2 eigenvalues not converged
     c_bands:  4 eigenvalues not converged
     c_bands:  4 eigenvalues not converged
     c_bands:  1 eigenvalues not converged
     c_bands:  1 eigenvalues not converged
     c_bands:  4 eigenvalues not converged
     c_bands:  2 eigenvalues not converged
     c_bands:  2 eigenvalues not converged
     c_bands:  1 eigenvalues not converged
     c_bands:  2 eigenvalues not converged
     c_bands:  3 eigenvalues not converged
     c_bands:  3 eigenvalues not converged
     c_bands:  1 eigenvalues not converged
     c_bands:  1 eigenvalues not converged
     c_bands:  2 eigenvalues not converged
     c_bands:  3 eigenvalues not converged
     c_bands:  3 eigenvalues not converged
     c_bands:  4 eigenvalues not converged
     c_bands:  4 eigenvalues not converged
     c_bands:  4 eigenvalues not converged
     c_bands:  4 eigenvalues not converged
     ethr =  1.45E-04,  avg # of iterations = 16.4

     total cpu time spent up to now is     1068.8 secs

     total energy              =   -2768.09196221 Ry
     estimated scf accuracy    <       0.52433847 Ry

     total magnetization       =     0.00    -0.01    -0.12 Bohr mag/cell
     absolute magnetization    =    12.17 Bohr mag/cell

     iteration #  4     ecut=   180.00 Ry     beta= 0.25
     Davidson diagonalization with overlap

---- Real-time Memory Report at c_bands before calling an iterative solver
          2271 MiB given to the printing process from OS
             0 MiB allocation reported by mallinfo(arena+hblkhd)
        117509 MiB available memory on the node where the printing process lives
------------------
     c_bands:  1 eigenvalues not converged
     c_bands:  1 eigenvalues not converged
     ethr =  1.45E-04,  avg # of iterations = 12.5

     total cpu time spent up to now is     1260.8 secs

     total energy              =   -2768.09588594 Ry
     estimated scf accuracy    <       0.21175642 Ry

     total magnetization       =    -0.01    -0.00     0.10 Bohr mag/cell
     absolute magnetization    =    12.39 Bohr mag/cell

     iteration #  5     ecut=   180.00 Ry     beta= 0.25
     Davidson diagonalization with overlap

---- Real-time Memory Report at c_bands before calling an iterative solver
          2272 MiB given to the printing process from OS
             0 MiB allocation reported by mallinfo(arena+hblkhd)
        117502 MiB available memory on the node where the printing process lives
------------------
     c_bands:  1 eigenvalues not converged
     ethr =  9.71E-05,  avg # of iterations = 10.9

     total cpu time spent up to now is     1465.0 secs

     total energy              =   -2768.07142959 Ry
     estimated scf accuracy    <       0.61627833 Ry

     total magnetization       =    -0.00     0.01    -0.12 Bohr mag/cell
     absolute magnetization    =    12.52 Bohr mag/cell

     iteration #  6     ecut=   180.00 Ry     beta= 0.25
     Davidson diagonalization with overlap

---- Real-time Memory Report at c_bands before calling an iterative solver
          2276 MiB given to the printing process from OS
             0 MiB allocation reported by mallinfo(arena+hblkhd)
        117479 MiB available memory on the node where the printing process lives
------------------
     c_bands:  1 eigenvalues not converged
     c_bands:  1 eigenvalues not converged
     c_bands:  1 eigenvalues not converged
     ethr =  9.71E-05,  avg # of iterations = 10.2

     total cpu time spent up to now is     1655.6 secs

     total energy              =   -2768.03740432 Ry
     estimated scf accuracy    <       0.01530899 Ry

     total magnetization       =    -0.00     0.01    -0.01 Bohr mag/cell
     absolute magnetization    =    12.47 Bohr mag/cell

     iteration #  7     ecut=   180.00 Ry     beta= 0.25
     Davidson diagonalization with overlap

---- Real-time Memory Report at c_bands before calling an iterative solver
          2280 MiB given to the printing process from OS
             0 MiB allocation reported by mallinfo(arena+hblkhd)
        117479 MiB available memory on the node where the printing process lives
------------------
     c_bands:  1 eigenvalues not converged
     c_bands:  2 eigenvalues not converged
     c_bands:  2 eigenvalues not converged
     c_bands:  3 eigenvalues not converged
     c_bands:  2 eigenvalues not converged
     c_bands:  4 eigenvalues not converged
     c_bands:  2 eigenvalues not converged
     c_bands:  2 eigenvalues not converged
     c_bands:  2 eigenvalues not converged
     c_bands:  1 eigenvalues not converged
     c_bands:  2 eigenvalues not converged
     c_bands:  2 eigenvalues not converged
     c_bands:  1 eigenvalues not converged
     c_bands:  2 eigenvalues not converged
     c_bands:  3 eigenvalues not converged
     c_bands:  2 eigenvalues not converged
     c_bands:  3 eigenvalues not converged
     c_bands:  3 eigenvalues not converged
     c_bands:  1 eigenvalues not converged
     c_bands:  2 eigenvalues not converged
     c_bands:  2 eigenvalues not converged
     c_bands:  2 eigenvalues not converged
     c_bands:  2 eigenvalues not converged
     c_bands:  3 eigenvalues not converged
     c_bands:  1 eigenvalues not converged
     c_bands:  1 eigenvalues not converged
     c_bands:  1 eigenvalues not converged
     c_bands:  3 eigenvalues not converged
     c_bands:  3 eigenvalues not converged
     c_bands:  1 eigenvalues not converged
     c_bands:  1 eigenvalues not converged
     c_bands:  1 eigenvalues not converged
     c_bands:  1 eigenvalues not converged
     c_bands:  3 eigenvalues not converged
     c_bands:  3 eigenvalues not converged
     c_bands:  3 eigenvalues not converged
     c_bands:  3 eigenvalues not converged
     c_bands:  3 eigenvalues not converged
     c_bands:  3 eigenvalues not converged
     c_bands:  3 eigenvalues not converged
     c_bands:  3 eigenvalues not converged
     c_bands:  3 eigenvalues not converged
     c_bands:  3 eigenvalues not converged
     c_bands:  3 eigenvalues not converged
     c_bands:  2 eigenvalues not converged
     c_bands:  2 eigenvalues not converged
     c_bands:  2 eigenvalues not converged
     c_bands:  4 eigenvalues not converged
     c_bands:  3 eigenvalues not converged
     c_bands:  3 eigenvalues not converged
     c_bands:  2 eigenvalues not converged
     c_bands:  2 eigenvalues not converged
     c_bands:  3 eigenvalues not converged
     c_bands:  3 eigenvalues not converged
     c_bands:  2 eigenvalues not converged
     c_bands:  2 eigenvalues not converged
     c_bands:  1 eigenvalues not converged
     c_bands:  1 eigenvalues not converged
     c_bands:  1 eigenvalues not converged
     c_bands:  2 eigenvalues not converged
     c_bands:  3 eigenvalues not converged
     c_bands:  3 eigenvalues not converged
     c_bands:  3 eigenvalues not converged
     c_bands:  1 eigenvalues not converged
     ethr =  7.02E-06,  avg # of iterations = 19.7

     total cpu time spent up to now is     1978.0 secs

     total energy              =   -2768.04946879 Ry
     estimated scf accuracy    <       0.01579634 Ry

     total magnetization       =     0.00     0.01     0.02 Bohr mag/cell
     absolute magnetization    =    12.12 Bohr mag/cell

     iteration #  8     ecut=   180.00 Ry     beta= 0.25
     Davidson diagonalization with overlap

---- Real-time Memory Report at c_bands before calling an iterative solver
          2287 MiB given to the printing process from OS
             0 MiB allocation reported by mallinfo(arena+hblkhd)
        117474 MiB available memory on the node where the printing process lives
------------------
     c_bands:  1 eigenvalues not converged
     ethr =  7.02E-06,  avg # of iterations =  9.7

     total cpu time spent up to now is     2177.1 secs

     total energy              =   -2768.05116233 Ry
     estimated scf accuracy    <       0.00519783 Ry

     total magnetization       =     0.00     0.01     0.02 Bohr mag/cell
     absolute magnetization    =    12.08 Bohr mag/cell

     iteration #  9     ecut=   180.00 Ry     beta= 0.25
     Davidson diagonalization with overlap

---- Real-time Memory Report at c_bands before calling an iterative solver
          2290 MiB given to the printing process from OS
             0 MiB allocation reported by mallinfo(arena+hblkhd)
        117474 MiB available memory on the node where the printing process lives
------------------
     c_bands:  1 eigenvalues not converged
     c_bands:  1 eigenvalues not converged
     ethr =  2.38E-06,  avg # of iterations = 11.6

     total cpu time spent up to now is     2425.4 secs

     total energy              =   -2768.05325491 Ry
     estimated scf accuracy    <       0.00134705 Ry

     total magnetization       =     0.00     0.01    -0.01 Bohr mag/cell
     absolute magnetization    =    12.16 Bohr mag/cell

     iteration # 10     ecut=   180.00 Ry     beta= 0.25
     Davidson diagonalization with overlap

---- Real-time Memory Report at c_bands before calling an iterative solver
          2301 MiB given to the printing process from OS
             0 MiB allocation reported by mallinfo(arena+hblkhd)
        117468 MiB available memory on the node where the printing process lives
------------------
     ethr =  6.18E-07,  avg # of iterations =  4.6

     total cpu time spent up to now is     2654.0 secs

     total energy              =   -2768.05683899 Ry
     estimated scf accuracy    <       0.00248347 Ry

     total magnetization       =     0.00     0.01     0.02 Bohr mag/cell
     absolute magnetization    =    12.24 Bohr mag/cell

     iteration # 11     ecut=   180.00 Ry     beta= 0.25
     Davidson diagonalization with overlap

---- Real-time Memory Report at c_bands before calling an iterative solver
          2301 MiB given to the printing process from OS
             0 MiB allocation reported by mallinfo(arena+hblkhd)
        117474 MiB available memory on the node where the printing process lives
------------------
     ethr =  6.18E-07,  avg # of iterations =  5.1

     total cpu time spent up to now is     2889.1 secs

     total energy              =   -2768.05955546 Ry
     estimated scf accuracy    <       0.00085601 Ry

     total magnetization       =     0.00     0.01    -0.01 Bohr mag/cell
     absolute magnetization    =    12.29 Bohr mag/cell

     iteration # 12     ecut=   180.00 Ry     beta= 0.25
     Davidson diagonalization with overlap

---- Real-time Memory Report at c_bands before calling an iterative solver
          2301 MiB given to the printing process from OS
             0 MiB allocation reported by mallinfo(arena+hblkhd)
        117473 MiB available memory on the node where the printing process lives
------------------
     ethr =  3.93E-07,  avg # of iterations =  5.6

     total cpu time spent up to now is     3096.0 secs

     total energy              =   -2768.06499071 Ry
     estimated scf accuracy    <       0.00086125 Ry

     total magnetization       =     0.00     0.01     0.02 Bohr mag/cell
     absolute magnetization    =    12.38 Bohr mag/cell

     iteration # 13     ecut=   180.00 Ry     beta= 0.25
     Davidson diagonalization with overlap

---- Real-time Memory Report at c_bands before calling an iterative solver
          2301 MiB given to the printing process from OS
             0 MiB allocation reported by mallinfo(arena+hblkhd)
        117473 MiB available memory on the node where the printing process lives
------------------
     ethr =  3.93E-07,  avg # of iterations =  7.5

 ==============================================================================
     atom number    1 relative position :    0.0000   0.0000   0.0000
     charge :    13.660022  (integrated on a sphere of radius 0.282)
     magnetization :         -0.000777    0.000852    4.350420
     magnetization/charge:   -0.000057    0.000062    0.318478
     polar coord.: r, theta, phi [deg] :     4.350420    0.015188  132.341196

 ==============================================================================

 ==============================================================================
     atom number    2 relative position :    0.0000   0.5774   3.1467
     charge :    13.659554  (integrated on a sphere of radius 0.282)
     magnetization :          0.000372   -0.001998   -4.350506
     magnetization/charge:    0.000027   -0.000146   -0.318495
     polar coord.: r, theta, phi [deg] :     4.350507  179.973229  -79.461857

 ==============================================================================

 ==============================================================================
     atom number    3 relative position :   -0.5000   0.8660   4.0109
     charge :    12.635699  (integrated on a sphere of radius 0.288)
     magnetization :          0.087419   -0.000547   -0.021246
     magnetization/charge:    0.006918   -0.000043   -0.001681
     polar coord.: r, theta, phi [deg] :     0.089966  103.659778   -0.358204

 ==============================================================================

 ==============================================================================
     atom number    4 relative position :    0.5000   0.2887   0.8642
     charge :    12.634598  (integrated on a sphere of radius 0.288)
     magnetization :         -0.085645    0.019626    0.021715
     magnetization/charge:   -0.006779    0.001553    0.001719
     polar coord.: r, theta, phi [deg] :     0.090508   76.118121  167.093081

 ==============================================================================

 ==============================================================================
     atom number    5 relative position :    0.5000   0.2887   2.2825
     charge :    12.634554  (integrated on a sphere of radius 0.288)
     magnetization :         -0.085917    0.004895   -0.021420
     magnetization/charge:   -0.006800    0.000387   -0.001695
     polar coord.: r, theta, phi [deg] :     0.088682  103.977448  176.739015

 ==============================================================================

 ==============================================================================
     atom number    6 relative position :   -0.5000   0.8660   5.4292
     charge :    12.634281  (integrated on a sphere of radius 0.288)
     magnetization :          0.080502    0.015358    0.021952
     magnetization/charge:    0.006372    0.001216    0.001737
     polar coord.: r, theta, phi [deg] :     0.084843   75.004962   10.800979

 ==============================================================================

 ==============================================================================
     atom number    7 relative position :   -0.5000   0.8660   1.2586
     charge :    13.735677  (integrated on a sphere of radius 0.282)
     magnetization :          0.060807   -0.016657    0.048912
     magnetization/charge:    0.004427   -0.001213    0.003561
     polar coord.: r, theta, phi [deg] :     0.079796   52.195797  -15.318892

 ==============================================================================

 ==============================================================================
     atom number    8 relative position :    0.5000   0.2887   5.0347
     charge :    13.736494  (integrated on a sphere of radius 0.282)
     magnetization :         -0.057180   -0.013306    0.048823
     magnetization/charge:   -0.004163   -0.000969    0.003554
     polar coord.: r, theta, phi [deg] :     0.076356   50.252179 -166.899757

 ==============================================================================

 ==============================================================================
     atom number    9 relative position :    0.0000   0.5774   4.4053
     charge :    13.735217  (integrated on a sphere of radius 0.282)
     magnetization :         -0.064104    0.000451   -0.049100
     magnetization/charge:   -0.004667    0.000033   -0.003575
     polar coord.: r, theta, phi [deg] :     0.080749  127.449009  179.596960

 ==============================================================================

 ==============================================================================
     atom number   10 relative position :    0.0000   0.5774   1.8880
     charge :    13.735969  (integrated on a sphere of radius 0.282)
     magnetization :          0.061291   -0.003646   -0.048826
     magnetization/charge:    0.004462   -0.000265   -0.003555
     polar coord.: r, theta, phi [deg] :     0.078447  128.492647   -3.404408

 ==============================================================================

 ==============================================================================
     atom number   11 relative position :   -0.5000   0.8660   2.7788
     charge :    13.791656  (integrated on a sphere of radius 0.282)
     magnetization :         -0.012501   -0.001565   -0.013069
     magnetization/charge:   -0.000906   -0.000113   -0.000948
     polar coord.: r, theta, phi [deg] :     0.018152  136.049304 -172.864402

 ==============================================================================

 ==============================================================================
     atom number   12 relative position :    0.5000   0.2887   3.5146
     charge :    13.792241  (integrated on a sphere of radius 0.282)
     magnetization :          0.010708    0.000305   -0.012911
     magnetization/charge:    0.000776    0.000022   -0.000936
     polar coord.: r, theta, phi [deg] :     0.016776  140.316909    1.633029

 ==============================================================================

 ==============================================================================
     atom number   13 relative position :    0.0000   0.5774   5.9254
     charge :    13.791624  (integrated on a sphere of radius 0.282)
     magnetization :          0.011225   -0.000230    0.012797
     magnetization/charge:    0.000814   -0.000017    0.000928
     polar coord.: r, theta, phi [deg] :     0.017024   41.263750   -1.174577

 ==============================================================================

 ==============================================================================
     atom number   14 relative position :    0.0000   0.5774   0.3679
     charge :    13.791846  (integrated on a sphere of radius 0.282)
     magnetization :         -0.014932    0.001337    0.013083
     magnetization/charge:   -0.001083    0.000097    0.000949
     polar coord.: r, theta, phi [deg] :     0.019897   48.888702  174.881980

 ==============================================================================

     total cpu time spent up to now is     3407.9 secs

     End of self-consistent calculation

          k = 0.0000 0.0000 0.0000 (122261 PWs)   bands (ev):

   -72.0145 -72.0115 -67.7471 -67.7407 -40.9071 -40.9070 -40.9045 -40.9042
   -40.9041 -40.9023 -36.3817 -36.3816 -36.3755 -36.3753 -36.3688 -36.3627
   -28.1630 -28.1557 -28.1537 -28.1516 -28.1494 -28.1436 -28.1420 -28.1405
   -28.1321 -28.1265 -28.1228 -28.1223 -28.1188 -28.1171 -28.1156 -28.1112
   -27.7126 -27.7120 -27.7094 -27.7093 -27.7054 -27.7047 -27.7019 -27.7013
   -27.7007 -27.7000 -27.6966 -27.6957 -27.6729 -27.6720 -27.6698 -27.6662
   -26.7098 -26.7001 -26.6969 -26.6960 -26.6915 -26.6867 -26.6858 -26.6817
   -26.6801 -26.6745 -26.6719 -26.6682 -26.6661 -26.6648 -26.6624 -26.6611
   -26.6592 -26.6552 -26.6506 -26.6484 -26.6477 -26.6416 -26.6388 -26.6354
   -26.2550 -26.2536 -26.2510 -26.2490 -26.2484 -26.2483 -26.2458 -26.2455
   -26.2390 -26.2378 -26.2340 -26.2318 -26.2217 -26.2211 -26.2192 -26.2189
   -26.2173 -26.2167 -26.2156 -26.2139 -26.2132 -26.2120 -26.2113 -26.2086
   -15.0879 -15.0851 -15.0781 -15.0746 -15.0585 -15.0568 -15.0530 -15.0477
   -15.0209 -15.0193 -15.0158 -15.0151 -15.0001 -14.9982 -14.9971 -14.9956
   -12.1145 -12.1106 -12.1041 -12.1035 -12.0990 -12.0926 -12.0905 -12.0820
   -12.0684 -12.0639 -12.0584 -12.0570 -12.0500 -12.0478 -12.0477 -12.0425
   -12.0295 -12.0231 -12.0227 -12.0211 -12.0031 -12.0016 -11.9989 -11.9953
    -3.8453  -3.8373  -3.6700  -3.6650  -3.4225  -3.4147  -3.1470  -3.1363
    -2.0062  -1.9866  -1.8112  -1.7793  -1.4940  -1.4920  -1.2261  -1.2117
     0.3886   0.4015   0.7392   0.7499   1.0510   1.0702   1.3715   1.3873
     5.4517   5.4855   5.6362   5.6697   6.0497   6.0518   6.1614   6.1711
     6.4164   6.4195   6.5774   6.5780   6.5799   6.5809   6.8217   6.8322
     6.9839   7.0210   7.1015   7.1253   7.2486   7.2605   7.4941   7.5129
     7.5645   7.5909   7.7502   7.7549   7.9283   7.9541   8.0290   8.0384
     8.0827   8.0984   8.1199   8.1424   8.2906   8.3249   8.6610   8.6801
     8.6895   8.6998   8.7835   8.8034   8.8726   8.8758   9.0034   9.0097
     9.0661   9.0679   9.2076   9.2108   9.4430   9.4464   9.4754   9.4943
     9.6290   9.6308   9.6933   9.6963   9.8018   9.8051   9.9201   9.9244

     occupation numbers 
     1.0000   1.0000   1.0000   1.0000   1.0000   1.0000   1.0000   1.0000
     1.0000   1.0000   1.0000   1.0000   1.0000   1.0000   1.0000   1.0000
     1.0000   1.0000   1.0000   1.0000   1.0000   1.0000   1.0000   1.0000
     1.0000   1.0000   1.0000   1.0000   1.0000   1.0000   1.0000   1.0000
     1.0000   1.0000   1.0000   1.0000   1.0000   1.0000   1.0000   1.0000
     1.0000   1.0000   1.0000   1.0000   1.0000   1.0000   1.0000   1.0000
     1.0000   1.0000   1.0000   1.0000   1.0000   1.0000   1.0000   1.0000
     1.0000   1.0000   1.0000   1.0000   1.0000   1.0000   1.0000   1.0000
     1.0000   1.0000   1.0000   1.0000   1.0000   1.0000   1.0000   1.0000
     1.0000   1.0000   1.0000   1.0000   1.0000   1.0000   1.0000   1.0000
     1.0000   1.0000   1.0000   1.0000   1.0000   1.0000   1.0000   1.0000
     1.0000   1.0000   1.0000   1.0000   1.0000   1.0000   1.0000   1.0000
     1.0000   1.0000   1.0000   1.0000   1.0000   1.0000   1.0000   1.0000
     1.0000   1.0000   1.0000   1.0000   1.0000   1.0000   1.0000   1.0000
     1.0000   1.0000   1.0000   1.0000   1.0000   1.0000   1.0000   1.0000
     1.0000   1.0000   1.0000   1.0000   1.0000   1.0000   1.0000   1.0000
     1.0000   1.0000   1.0000   1.0000   1.0000   1.0000   1.0000   1.0000
     1.0000   1.0000   1.0000   1.0000   1.0000   1.0000   1.0000   1.0000
     1.0000   1.0000   1.0000   1.0000   1.0000   1.0000   1.0000   1.0000
     1.0000   1.0000   1.0000   1.0000   1.0000   1.0000   1.0000   1.0000
     1.0000   1.0000   1.0000   1.0000   1.0000   1.0000   1.0000   1.0000
     1.0000   1.0000   1.0000   1.0000   1.0000   1.0000   1.0000   1.0000
     1.0000   1.0000   1.0000   1.0000   1.0000   1.0000   1.0000   1.0000
     1.0000   1.0000   1.0000   1.0000   1.0000   1.0000   1.0000   1.0000
     1.0000   1.0000   1.0000   1.0000   1.0000   1.0000   1.0000   1.0000
     1.0000   1.0000   1.0000   1.0000   1.0000   1.0000   1.0000   1.0000
     1.0000   1.0000   1.0000   1.0000   1.0000   1.0000   1.0000   1.0000
     1.0000   1.0000   0.0000   0.0000   0.0000   0.0000   0.0000   0.0000

          k = 0.0000 0.0000-0.0794 (122224 PWs)   bands (ev):

   -72.0145 -72.0115 -67.7471 -67.7407 -40.9071 -40.9070 -40.9045 -40.9042
   -40.9041 -40.9023 -36.3817 -36.3816 -36.3755 -36.3753 -36.3688 -36.3627
   -28.1630 -28.1557 -28.1537 -28.1516 -28.1494 -28.1436 -28.1420 -28.1405
   -28.1321 -28.1265 -28.1228 -28.1223 -28.1188 -28.1171 -28.1156 -28.1112
   -27.7126 -27.7120 -27.7094 -27.7093 -27.7054 -27.7047 -27.7019 -27.7013
   -27.7007 -27.7000 -27.6966 -27.6957 -27.6729 -27.6720 -27.6698 -27.6662
   -26.7098 -26.7001 -26.6969 -26.6960 -26.6915 -26.6867 -26.6858 -26.6817
   -26.6801 -26.6745 -26.6719 -26.6682 -26.6661 -26.6648 -26.6624 -26.6611
   -26.6592 -26.6552 -26.6506 -26.6484 -26.6477 -26.6416 -26.6388 -26.6354
   -26.2550 -26.2536 -26.2510 -26.2490 -26.2484 -26.2483 -26.2458 -26.2455
   -26.2390 -26.2378 -26.2340 -26.2318 -26.2217 -26.2211 -26.2192 -26.2189
   -26.2173 -26.2167 -26.2156 -26.2139 -26.2132 -26.2120 -26.2113 -26.2086
   -15.0879 -15.0851 -15.0781 -15.0746 -15.0585 -15.0568 -15.0530 -15.0477
   -15.0209 -15.0193 -15.0158 -15.0151 -15.0001 -14.9982 -14.9971 -14.9956
   -12.1145 -12.1106 -12.1041 -12.1035 -12.0990 -12.0926 -12.0905 -12.0820
   -12.0684 -12.0639 -12.0584 -12.0570 -12.0500 -12.0478 -12.0477 -12.0425
   -12.0295 -12.0231 -12.0227 -12.0211 -12.0031 -12.0016 -11.9989 -11.9953
    -3.8453  -3.8371  -3.6730  -3.6627  -3.4253  -3.4100  -3.1491  -3.1365
    -1.9544  -1.9356  -1.8903  -1.8791  -1.3972  -1.3740  -1.3009  -1.2837
     0.4877   0.5121   0.5643   0.5954   1.1777   1.1861   1.3197   1.3248
     5.5006   5.5077   5.6025   5.6152   6.0497   6.0518   6.1468   6.1547
     6.4495   6.4798   6.5774   6.5780   6.5798   6.5807   6.8252   6.8432
     6.9020   6.9866   7.0788   7.1998   7.2411   7.2988   7.5022   7.5108
     7.5295   7.5922   7.7299   7.7492   7.9453   7.9806   8.0072   8.0473
     8.0613   8.0784   8.1552   8.1954   8.2630   8.2927   8.6714   8.6943
     8.7053   8.7222   8.7694   8.7904   8.8250   8.8516   9.0267   9.0354
     9.0800   9.0883   9.2035   9.2062   9.3960   9.4224   9.4652   9.5552
     9.5677   9.6342   9.6383   9.7559   9.8507   9.9066   9.9298   9.9302

     occupation numbers 
     1.0000   1.0000   1.0000   1.0000   1.0000   1.0000   1.0000   1.0000
     1.0000   1.0000   1.0000   1.0000   1.0000   1.0000   1.0000   1.0000
     1.0000   1.0000   1.0000   1.0000   1.0000   1.0000   1.0000   1.0000
     1.0000   1.0000   1.0000   1.0000   1.0000   1.0000   1.0000   1.0000
     1.0000   1.0000   1.0000   1.0000   1.0000   1.0000   1.0000   1.0000
     1.0000   1.0000   1.0000   1.0000   1.0000   1.0000   1.0000   1.0000
     1.0000   1.0000   1.0000   1.0000   1.0000   1.0000   1.0000   1.0000
     1.0000   1.0000   1.0000   1.0000   1.0000   1.0000   1.0000   1.0000
     1.0000   1.0000   1.0000   1.0000   1.0000   1.0000   1.0000   1.0000
     1.0000   1.0000   1.0000   1.0000   1.0000   1.0000   1.0000   1.0000
     1.0000   1.0000   1.0000   1.0000   1.0000   1.0000   1.0000   1.0000
     1.0000   1.0000   1.0000   1.0000   1.0000   1.0000   1.0000   1.0000
     1.0000   1.0000   1.0000   1.0000   1.0000   1.0000   1.0000   1.0000
     1.0000   1.0000   1.0000   1.0000   1.0000   1.0000   1.0000   1.0000
     1.0000   1.0000   1.0000   1.0000   1.0000   1.0000   1.0000   1.0000
     1.0000   1.0000   1.0000   1.0000   1.0000   1.0000   1.0000   1.0000
     1.0000   1.0000   1.0000   1.0000   1.0000   1.0000   1.0000   1.0000
     1.0000   1.0000   1.0000   1.0000   1.0000   1.0000   1.0000   1.0000
     1.0000   1.0000   1.0000   1.0000   1.0000   1.0000   1.0000   1.0000
     1.0000   1.0000   1.0000   1.0000   1.0000   1.0000   1.0000   1.0000
     1.0000   1.0000   1.0000   1.0000   1.0000   1.0000   1.0000   1.0000
     1.0000   1.0000   1.0000   1.0000   1.0000   1.0000   1.0000   1.0000
     1.0000   1.0000   1.0000   1.0000   1.0000   1.0000   1.0000   1.0000
     1.0000   1.0000   1.0000   1.0000   1.0000   1.0000   1.0000   1.0000
     1.0000   1.0000   1.0000   1.0000   1.0000   1.0000   1.0000   1.0000
     1.0000   1.0000   1.0000   1.0000   1.0000   1.0000   1.0000   1.0000
     1.0000   1.0000   1.0000   1.0000   1.0000   1.0000   1.0000   1.0000
     1.0000   1.0000   0.0000   0.0000   0.0000   0.0000   0.0000   0.0000

          k = 0.0000 0.1925-0.0088 (122182 PWs)   bands (ev):

   -72.0145 -72.0115 -67.7471 -67.7407 -40.9072 -40.9071 -40.9045 -40.9043
   -40.9042 -40.9023 -36.3818 -36.3818 -36.3755 -36.3755 -36.3688 -36.3626
   -28.1629 -28.1555 -28.1537 -28.1515 -28.1493 -28.1436 -28.1419 -28.1405
   -28.1321 -28.1265 -28.1227 -28.1222 -28.1187 -28.1169 -28.1155 -28.1110
   -27.7126 -27.7119 -27.7094 -27.7093 -27.7053 -27.7046 -27.7017 -27.7013
   -27.7006 -27.7000 -27.6965 -27.6957 -27.6728 -27.6718 -27.6697 -27.6661
   -26.7097 -26.6999 -26.6969 -26.6960 -26.6914 -26.6867 -26.6858 -26.6816
   -26.6800 -26.6744 -26.6717 -26.6680 -26.6660 -26.6647 -26.6623 -26.6609
   -26.6590 -26.6552 -26.6506 -26.6483 -26.6475 -26.6414 -26.6388 -26.6355
   -26.2549 -26.2536 -26.2511 -26.2490 -26.2483 -26.2482 -26.2457 -26.2454
   -26.2388 -26.2378 -26.2339 -26.2317 -26.2216 -26.2209 -26.2191 -26.2189
   -26.2173 -26.2166 -26.2155 -26.2137 -26.2132 -26.2118 -26.2111 -26.2084
   -15.0869 -15.0847 -15.0777 -15.0736 -15.0591 -15.0565 -15.0535 -15.0474
   -15.0212 -15.0194 -15.0159 -15.0153 -14.9992 -14.9973 -14.9965 -14.9950
   -12.1171 -12.1107 -12.1067 -12.1039 -12.0974 -12.0908 -12.0904 -12.0815
   -12.0665 -12.0624 -12.0569 -12.0553 -12.0489 -12.0469 -12.0461 -12.0414
   -12.0288 -12.0229 -12.0216 -12.0206 -12.0045 -12.0032 -11.9996 -11.9959
    -3.6009  -3.5931  -3.4324  -3.4274  -3.1840  -3.1761  -2.9169  -2.9068
    -1.8333  -1.8124  -1.6554  -1.6257  -1.3655  -1.3585  -1.1284  -1.1122
     0.3040   0.3229   0.5804   0.5957   0.8126   0.8324   1.0723   1.0866
     5.2946   5.3584   5.4068   5.5534   5.7644   5.8340   5.8595   5.9829
     6.0345   6.0790   6.1344   6.1709   6.3206   6.3855   6.4108   6.4728
     6.5350   6.5557   6.7263   6.7855   6.8135   6.8364   6.8494   6.9006
     6.9634   7.0573   7.1891   7.2460   7.2975   7.3268   7.4530   7.5299
     7.6159   7.7044   7.8881   7.9223   7.9508   8.0115   8.1464   8.1928
     8.2577   8.2700   8.3677   8.4213   8.5251   8.5395   8.6485   8.6648
     8.7401   8.7775   8.9664   8.9797   9.1427   9.1814   9.3111   9.3385
     9.4158   9.4526   9.9697  10.0326  10.0786  10.1432  10.5347  10.5632

     occupation numbers 
     1.0000   1.0000   1.0000   1.0000   1.0000   1.0000   1.0000   1.0000
     1.0000   1.0000   1.0000   1.0000   1.0000   1.0000   1.0000   1.0000
     1.0000   1.0000   1.0000   1.0000   1.0000   1.0000   1.0000   1.0000
     1.0000   1.0000   1.0000   1.0000   1.0000   1.0000   1.0000   1.0000
     1.0000   1.0000   1.0000   1.0000   1.0000   1.0000   1.0000   1.0000
     1.0000   1.0000   1.0000   1.0000   1.0000   1.0000   1.0000   1.0000
     1.0000   1.0000   1.0000   1.0000   1.0000   1.0000   1.0000   1.0000
     1.0000   1.0000   1.0000   1.0000   1.0000   1.0000   1.0000   1.0000
     1.0000   1.0000   1.0000   1.0000   1.0000   1.0000   1.0000   1.0000
     1.0000   1.0000   1.0000   1.0000   1.0000   1.0000   1.0000   1.0000
     1.0000   1.0000   1.0000   1.0000   1.0000   1.0000   1.0000   1.0000
     1.0000   1.0000   1.0000   1.0000   1.0000   1.0000   1.0000   1.0000
     1.0000   1.0000   1.0000   1.0000   1.0000   1.0000   1.0000   1.0000
     1.0000   1.0000   1.0000   1.0000   1.0000   1.0000   1.0000   1.0000
     1.0000   1.0000   1.0000   1.0000   1.0000   1.0000   1.0000   1.0000
     1.0000   1.0000   1.0000   1.0000   1.0000   1.0000   1.0000   1.0000
     1.0000   1.0000   1.0000   1.0000   1.0000   1.0000   1.0000   1.0000
     1.0000   1.0000   1.0000   1.0000   1.0000   1.0000   1.0000   1.0000
     1.0000   1.0000   1.0000   1.0000   1.0000   1.0000   1.0000   1.0000
     1.0000   1.0000   1.0000   1.0000   1.0000   1.0000   1.0000   1.0000
     1.0000   1.0000   1.0000   1.0000   1.0000   1.0000   1.0000   1.0000
     1.0000   1.0000   1.0000   1.0000   1.0000   1.0000   1.0000   1.0000
     1.0000   1.0000   1.0000   1.0000   1.0000   1.0000   1.0000   1.0000
     1.0000   1.0000   1.0000   1.0000   1.0000   1.0000   1.0000   1.0000
     1.0000   1.0000   1.0000   1.0000   1.0000   1.0000   1.0000   1.0000
     1.0000   1.0000   1.0000   1.0000   1.0000   1.0000   1.0000   1.0000
     1.0000   1.0000   1.0000   1.0000   1.0000   1.0000   1.0000   1.0000
     1.0000   1.0000   0.0000   0.0000   0.0000   0.0000   0.0000   0.0000

          k = 0.0000 0.1925-0.0883 (122190 PWs)   bands (ev):

   -72.0145 -72.0115 -67.7471 -67.7407 -40.9072 -40.9071 -40.9045 -40.9043
   -40.9042 -40.9023 -36.3818 -36.3818 -36.3755 -36.3755 -36.3688 -36.3626
   -28.1629 -28.1555 -28.1537 -28.1515 -28.1493 -28.1436 -28.1419 -28.1405
   -28.1321 -28.1265 -28.1227 -28.1222 -28.1187 -28.1169 -28.1155 -28.1110
   -27.7126 -27.7119 -27.7094 -27.7093 -27.7053 -27.7046 -27.7017 -27.7013
   -27.7006 -27.7000 -27.6965 -27.6957 -27.6728 -27.6718 -27.6697 -27.6661
   -26.7097 -26.6999 -26.6969 -26.6960 -26.6914 -26.6867 -26.6858 -26.6816
   -26.6800 -26.6744 -26.6717 -26.6680 -26.6660 -26.6647 -26.6623 -26.6609
   -26.6590 -26.6552 -26.6506 -26.6483 -26.6475 -26.6414 -26.6388 -26.6355
   -26.2549 -26.2536 -26.2511 -26.2490 -26.2483 -26.2482 -26.2457 -26.2454
   -26.2388 -26.2378 -26.2339 -26.2317 -26.2216 -26.2209 -26.2191 -26.2189
   -26.2173 -26.2166 -26.2155 -26.2137 -26.2132 -26.2118 -26.2111 -26.2084
   -15.0869 -15.0847 -15.0777 -15.0736 -15.0591 -15.0565 -15.0535 -15.0474
   -15.0212 -15.0194 -15.0159 -15.0153 -14.9992 -14.9973 -14.9965 -14.9950
   -12.1171 -12.1107 -12.1067 -12.1039 -12.0974 -12.0908 -12.0904 -12.0815
   -12.0665 -12.0624 -12.0569 -12.0553 -12.0489 -12.0469 -12.0461 -12.0414
   -12.0288 -12.0229 -12.0216 -12.0206 -12.0045 -12.0032 -11.9996 -11.9959
    -3.6010  -3.5928  -3.4356  -3.4248  -3.1874  -3.1709  -2.9199  -2.9059
    -1.7838  -1.7788  -1.7192  -1.7093  -1.2857  -1.2680  -1.1827  -1.1692
     0.3513   0.3737   0.4912   0.5210   0.8726   0.8773   1.0613   1.0648
     5.2950   5.3613   5.4027   5.5533   5.7583   5.8363   5.8785   5.9476
     6.0465   6.0912   6.1273   6.1719   6.3302   6.3845   6.4143   6.4726
     6.5367   6.5559   6.7399   6.7701   6.8135   6.8263   6.8435   6.9306
     6.9660   7.0055   7.1814   7.2438   7.2810   7.3565   7.4824   7.5254
     7.6673   7.6903   7.8651   7.8945   7.9772   8.0456   8.1107   8.1604
     8.2145   8.2561   8.4219   8.4561   8.4860   8.5662   8.6362   8.6797
     8.7745   8.8260   8.8683   8.9208   9.2014   9.2177   9.3027   9.3359
     9.4205   9.4794   9.8919   9.9444  10.1612  10.1949  10.5250  10.5468

     occupation numbers 
     1.0000   1.0000   1.0000   1.0000   1.0000   1.0000   1.0000   1.0000
     1.0000   1.0000   1.0000   1.0000   1.0000   1.0000   1.0000   1.0000
     1.0000   1.0000   1.0000   1.0000   1.0000   1.0000   1.0000   1.0000
     1.0000   1.0000   1.0000   1.0000   1.0000   1.0000   1.0000   1.0000
     1.0000   1.0000   1.0000   1.0000   1.0000   1.0000   1.0000   1.0000
     1.0000   1.0000   1.0000   1.0000   1.0000   1.0000   1.0000   1.0000
     1.0000   1.0000   1.0000   1.0000   1.0000   1.0000   1.0000   1.0000
     1.0000   1.0000   1.0000   1.0000   1.0000   1.0000   1.0000   1.0000
     1.0000   1.0000   1.0000   1.0000   1.0000   1.0000   1.0000   1.0000
     1.0000   1.0000   1.0000   1.0000   1.0000   1.0000   1.0000   1.0000
     1.0000   1.0000   1.0000   1.0000   1.0000   1.0000   1.0000   1.0000
     1.0000   1.0000   1.0000   1.0000   1.0000   1.0000   1.0000   1.0000
     1.0000   1.0000   1.0000   1.0000   1.0000   1.0000   1.0000   1.0000
     1.0000   1.0000   1.0000   1.0000   1.0000   1.0000   1.0000   1.0000
     1.0000   1.0000   1.0000   1.0000   1.0000   1.0000   1.0000   1.0000
     1.0000   1.0000   1.0000   1.0000   1.0000   1.0000   1.0000   1.0000
     1.0000   1.0000   1.0000   1.0000   1.0000   1.0000   1.0000   1.0000
     1.0000   1.0000   1.0000   1.0000   1.0000   1.0000   1.0000   1.0000
     1.0000   1.0000   1.0000   1.0000   1.0000   1.0000   1.0000   1.0000
     1.0000   1.0000   1.0000   1.0000   1.0000   1.0000   1.0000   1.0000
     1.0000   1.0000   1.0000   1.0000   1.0000   1.0000   1.0000   1.0000
     1.0000   1.0000   1.0000   1.0000   1.0000   1.0000   1.0000   1.0000
     1.0000   1.0000   1.0000   1.0000   1.0000   1.0000   1.0000   1.0000
     1.0000   1.0000   1.0000   1.0000   1.0000   1.0000   1.0000   1.0000
     1.0000   1.0000   1.0000   1.0000   1.0000   1.0000   1.0000   1.0000
     1.0000   1.0000   1.0000   1.0000   1.0000   1.0000   1.0000   1.0000
     1.0000   1.0000   1.0000   1.0000   1.0000   1.0000   1.0000   1.0000
     1.0000   1.0000   0.0000   0.0000   0.0000   0.0000   0.0000   0.0000

          k = 0.0000 0.3849-0.0177 (122108 PWs)   bands (ev):

   -72.0145 -72.0115 -67.7471 -67.7407 -40.9074 -40.9071 -40.9045 -40.9044
   -40.9042 -40.9023 -36.3821 -36.3819 -36.3759 -36.3756 -36.3688 -36.3626
   -28.1627 -28.1552 -28.1537 -28.1513 -28.1492 -28.1435 -28.1418 -28.1404
   -28.1320 -28.1263 -28.1226 -28.1221 -28.1185 -28.1166 -28.1154 -28.1108
   -27.7125 -27.7118 -27.7094 -27.7093 -27.7052 -27.7045 -27.7015 -27.7012
   -27.7004 -27.7000 -27.6964 -27.6956 -27.6725 -27.6716 -27.6695 -27.6658
   -26.7095 -26.6996 -26.6970 -26.6959 -26.6913 -26.6867 -26.6857 -26.6816
   -26.6797 -26.6741 -26.6714 -26.6675 -26.6658 -26.6644 -26.6619 -26.6605
   -26.6588 -26.6550 -26.6504 -26.6482 -26.6474 -26.6409 -26.6390 -26.6354
   -26.2549 -26.2536 -26.2511 -26.2490 -26.2482 -26.2481 -26.2456 -26.2453
   -26.2387 -26.2376 -26.2337 -26.2315 -26.2215 -26.2206 -26.2188 -26.2187
   -26.2172 -26.2162 -26.2152 -26.2135 -26.2130 -26.2114 -26.2107 -26.2081
   -15.0855 -15.0832 -15.0763 -15.0722 -15.0594 -15.0568 -15.0537 -15.0476
   -15.0216 -15.0198 -15.0163 -15.0157 -14.9977 -14.9959 -14.9950 -14.9935
   -12.1201 -12.1138 -12.1095 -12.1073 -12.0963 -12.0895 -12.0892 -12.0799
   -12.0627 -12.0588 -12.0541 -12.0515 -12.0464 -12.0448 -12.0435 -12.0396
   -12.0273 -12.0217 -12.0195 -12.0187 -12.0059 -12.0052 -12.0015 -11.9976
    -2.9164  -2.9078  -2.7787  -2.7717  -2.5139  -2.5014  -2.2866  -2.2746
    -1.4250  -1.4058  -1.3420  -1.3276  -1.0993  -1.0717  -1.0054  -0.9819
    -0.1996  -0.1742  -0.0262   0.0358   0.0979   0.1391   0.3427   0.3455
     4.5874   4.6250   4.8041   4.9317   5.0575   5.0978   5.1640   5.2109
     5.4423   5.4911   5.5697   5.5981   5.8673   5.9148   6.0434   6.0555
     6.1739   6.2658   6.2914   6.3366   6.3831   6.4673   6.5026   6.5337
     6.5792   6.6060   6.6666   6.7063   6.7473   6.8240   6.8469   6.9398
     7.0846   7.1307   7.1959   7.2663   7.3893   7.4221   7.4549   7.4756
     7.6944   7.7081   7.8530   7.8911   7.9548   7.9792   8.1532   8.1938
     8.2506   8.2718   8.3740   8.3944   8.8774   8.9276   8.9692   9.0631
     9.2858   9.3097  10.1991  10.2389  10.3193  10.3430  10.4340  10.4508

     occupation numbers 
     1.0000   1.0000   1.0000   1.0000   1.0000   1.0000   1.0000   1.0000
     1.0000   1.0000   1.0000   1.0000   1.0000   1.0000   1.0000   1.0000
     1.0000   1.0000   1.0000   1.0000   1.0000   1.0000   1.0000   1.0000
     1.0000   1.0000   1.0000   1.0000   1.0000   1.0000   1.0000   1.0000
     1.0000   1.0000   1.0000   1.0000   1.0000   1.0000   1.0000   1.0000
     1.0000   1.0000   1.0000   1.0000   1.0000   1.0000   1.0000   1.0000
     1.0000   1.0000   1.0000   1.0000   1.0000   1.0000   1.0000   1.0000
     1.0000   1.0000   1.0000   1.0000   1.0000   1.0000   1.0000   1.0000
     1.0000   1.0000   1.0000   1.0000   1.0000   1.0000   1.0000   1.0000
     1.0000   1.0000   1.0000   1.0000   1.0000   1.0000   1.0000   1.0000
     1.0000   1.0000   1.0000   1.0000   1.0000   1.0000   1.0000   1.0000
     1.0000   1.0000   1.0000   1.0000   1.0000   1.0000   1.0000   1.0000
     1.0000   1.0000   1.0000   1.0000   1.0000   1.0000   1.0000   1.0000
     1.0000   1.0000   1.0000   1.0000   1.0000   1.0000   1.0000   1.0000
     1.0000   1.0000   1.0000   1.0000   1.0000   1.0000   1.0000   1.0000
     1.0000   1.0000   1.0000   1.0000   1.0000   1.0000   1.0000   1.0000
     1.0000   1.0000   1.0000   1.0000   1.0000   1.0000   1.0000   1.0000
     1.0000   1.0000   1.0000   1.0000   1.0000   1.0000   1.0000   1.0000
     1.0000   1.0000   1.0000   1.0000   1.0000   1.0000   1.0000   1.0000
     1.0000   1.0000   1.0000   1.0000   1.0000   1.0000   1.0000   1.0000
     1.0000   1.0000   1.0000   1.0000   1.0000   1.0000   1.0000   1.0000
     1.0000   1.0000   1.0000   1.0000   1.0000   1.0000   1.0000   1.0000
     1.0000   1.0000   1.0000   1.0000   1.0000   1.0000   1.0000   1.0000
     1.0000   1.0000   1.0000   1.0000   1.0000   1.0000   1.0000   1.0000
     1.0000   1.0000   1.0000   1.0000   1.0000   1.0000   1.0000   1.0000
     1.0000   1.0000   1.0000   1.0000   1.0000   1.0000   1.0000   1.0000
     1.0000   1.0000   1.0000   1.0000   1.0000   1.0000   1.0000   1.0000
     1.0000   1.0000   0.0000   0.0000   0.0000   0.0000   0.0000   0.0000

          k = 0.0000 0.3849-0.0971 (122062 PWs)   bands (ev):

   -72.0145 -72.0115 -67.7471 -67.7407 -40.9074 -40.9071 -40.9045 -40.9044
   -40.9042 -40.9023 -36.3821 -36.3819 -36.3759 -36.3756 -36.3688 -36.3626
   -28.1627 -28.1552 -28.1537 -28.1513 -28.1492 -28.1435 -28.1418 -28.1404
   -28.1320 -28.1263 -28.1226 -28.1221 -28.1185 -28.1166 -28.1154 -28.1108
   -27.7125 -27.7118 -27.7094 -27.7093 -27.7052 -27.7045 -27.7015 -27.7012
   -27.7004 -27.6999 -27.6964 -27.6956 -27.6725 -27.6716 -27.6695 -27.6658
   -26.7095 -26.6996 -26.6970 -26.6959 -26.6913 -26.6867 -26.6857 -26.6816
   -26.6797 -26.6741 -26.6714 -26.6675 -26.6658 -26.6644 -26.6619 -26.6605
   -26.6588 -26.6550 -26.6504 -26.6482 -26.6474 -26.6409 -26.6390 -26.6354
   -26.2549 -26.2536 -26.2511 -26.2490 -26.2482 -26.2481 -26.2456 -26.2453
   -26.2387 -26.2376 -26.2337 -26.2315 -26.2215 -26.2206 -26.2188 -26.2187
   -26.2172 -26.2162 -26.2152 -26.2135 -26.2130 -26.2114 -26.2107 -26.2081
   -15.0855 -15.0832 -15.0763 -15.0722 -15.0594 -15.0568 -15.0537 -15.0476
   -15.0216 -15.0198 -15.0163 -15.0157 -14.9977 -14.9959 -14.9950 -14.9935
   -12.1201 -12.1138 -12.1095 -12.1073 -12.0963 -12.0895 -12.0892 -12.0799
   -12.0627 -12.0588 -12.0541 -12.0515 -12.0464 -12.0448 -12.0435 -12.0396
   -12.0273 -12.0217 -12.0195 -12.0187 -12.0059 -12.0052 -12.0015 -11.9976
    -2.9165  -2.9077  -2.7796  -2.7708  -2.5166  -2.4981  -2.2902  -2.2717
    -1.4304  -1.4146  -1.3331  -1.3026  -1.1182  -1.1099  -0.9847  -0.9622
    -0.1981  -0.1905   0.0029   0.0205   0.1021   0.1335   0.3383   0.3496
     4.5901   4.6168   4.8076   4.9365   5.0704   5.1098   5.1330   5.2357
     5.4455   5.4645   5.5415   5.5720   5.9079   5.9652   6.0448   6.0673
     6.1853   6.2038   6.2876   6.3296   6.4059   6.4628   6.5391   6.5589
[...]

 %%%%%%%%%%%%%%%%%%%%%%%%%%%%%%%%%%%%%%%%%%%%%%%%%%%%%%%%%%%%%%%%%%%%%%%%%%%%%%
     Error in routine ZPOTRF (1):
     Cholesky failed in invchol.
 %%%%%%%%%%%%%%%%%%%%%%%%%%%%%%%%%%%%%%%%%%%%%%%%%%%%%%%%%%%%%%%%%%%%%%%%%%%%%%

     stopping ...
 ZPOTRF exited with INFO=           17

 %%%%%%%%%%%%%%%%%%%%%%%%%%%%%%%%%%%%%%%%%%%%%%%%%%%%%%%%%%%%%%%%%%%%%%%%%%%%%%
     Error in routine ZPOTRF (1):
     Cholesky failed in invchol.
 %%%%%%%%%%%%%%%%%%%%%%%%%%%%%%%%%%%%%%%%%%%%%%%%%%%%%%%%%%%%%%%%%%%%%%%%%%%%%%

     stopping ...
 ZPOTRF exited with INFO=           17

 %%%%%%%%%%%%%%%%%%%%%%%%%%%%%%%%%%%%%%%%%%%%%%%%%%%%%%%%%%%%%%%%%%%%%%%%%%%%%%
     Error in routine ZPOTRF (1):
     Cholesky failed in invchol.
 %%%%%%%%%%%%%%%%%%%%%%%%%%%%%%%%%%%%%%%%%%%%%%%%%%%%%%%%%%%%%%%%%%%%%%%%%%%%%%

     stopping ...
 ZPOTRF exited with INFO=           17

 %%%%%%%%%%%%%%%%%%%%%%%%%%%%%%%%%%%%%%%%%%%%%%%%%%%%%%%%%%%%%%%%%%%%%%%%%%%%%%
     Error in routine ZPOTRF (1):
     Cholesky failed in invchol.
 %%%%%%%%%%%%%%%%%%%%%%%%%%%%%%%%%%%%%%%%%%%%%%%%%%%%%%%%%%%%%%%%%%%%%%%%%%%%%%

     stopping ...
 ZPOTRF exited with INFO=           17

 %%%%%%%%%%%%%%%%%%%%%%%%%%%%%%%%%%%%%%%%%%%%%%%%%%%%%%%%%%%%%%%%%%%%%%%%%%%%%%
     Error in routine ZPOTRF (1):
     Cholesky failed in invchol.
 %%%%%%%%%%%%%%%%%%%%%%%%%%%%%%%%%%%%%%%%%%%%%%%%%%%%%%%%%%%%%%%%%%%%%%%%%%%%%%

     stopping ...
 ZPOTRF exited with INFO=           17

 %%%%%%%%%%%%%%%%%%%%%%%%%%%%%%%%%%%%%%%%%%%%%%%%%%%%%%%%%%%%%%%%%%%%%%%%%%%%%%
     Error in routine ZPOTRF (1):
     Cholesky failed in invchol.
 %%%%%%%%%%%%%%%%%%%%%%%%%%%%%%%%%%%%%%%%%%%%%%%%%%%%%%%%%%%%%%%%%%%%%%%%%%%%%%

     stopping ...
 ZPOTRF exited with INFO=           17

 %%%%%%%%%%%%%%%%%%%%%%%%%%%%%%%%%%%%%%%%%%%%%%%%%%%%%%%%%%%%%%%%%%%%%%%%%%%%%%
     Error in routine ZPOTRF (1):
     Cholesky failed in invchol.
 %%%%%%%%%%%%%%%%%%%%%%%%%%%%%%%%%%%%%%%%%%%%%%%%%%%%%%%%%%%%%%%%%%%%%%%%%%%%%%

     stopping ...
 ZPOTRF exited with INFO=           17

 %%%%%%%%%%%%%%%%%%%%%%%%%%%%%%%%%%%%%%%%%%%%%%%%%%%%%%%%%%%%%%%%%%%%%%%%%%%%%%
     Error in routine ZPOTRF (1):
     Cholesky failed in invchol.
 %%%%%%%%%%%%%%%%%%%%%%%%%%%%%%%%%%%%%%%%%%%%%%%%%%%%%%%%%%%%%%%%%%%%%%%%%%%%%%

     stopping ...
 ZPOTRF exited with INFO=           17

 %%%%%%%%%%%%%%%%%%%%%%%%%%%%%%%%%%%%%%%%%%%%%%%%%%%%%%%%%%%%%%%%%%%%%%%%%%%%%%
     Error in routine ZPOTRF (1):
     Cholesky failed in invchol.
 %%%%%%%%%%%%%%%%%%%%%%%%%%%%%%%%%%%%%%%%%%%%%%%%%%%%%%%%%%%%%%%%%%%%%%%%%%%%%%

     stopping ...
 ZPOTRF exited with INFO=           17

 %%%%%%%%%%%%%%%%%%%%%%%%%%%%%%%%%%%%%%%%%%%%%%%%%%%%%%%%%%%%%%%%%%%%%%%%%%%%%%
     Error in routine ZPOTRF (1):
     Cholesky failed in invchol.
 %%%%%%%%%%%%%%%%%%%%%%%%%%%%%%%%%%%%%%%%%%%%%%%%%%%%%%%%%%%%%%%%%%%%%%%%%%%%%%

     stopping ...
 ZPOTRF exited with INFO=           17

 %%%%%%%%%%%%%%%%%%%%%%%%%%%%%%%%%%%%%%%%%%%%%%%%%%%%%%%%%%%%%%%%%%%%%%%%%%%%%%
     Error in routine ZPOTRF (1):
     Cholesky failed in invchol.
 %%%%%%%%%%%%%%%%%%%%%%%%%%%%%%%%%%%%%%%%%%%%%%%%%%%%%%%%%%%%%%%%%%%%%%%%%%%%%%

     stopping ...
 ZPOTRF exited with INFO=           17

 %%%%%%%%%%%%%%%%%%%%%%%%%%%%%%%%%%%%%%%%%%%%%%%%%%%%%%%%%%%%%%%%%%%%%%%%%%%%%%
     Error in routine ZPOTRF (1):
     Cholesky failed in invchol.
 %%%%%%%%%%%%%%%%%%%%%%%%%%%%%%%%%%%%%%%%%%%%%%%%%%%%%%%%%%%%%%%%%%%%%%%%%%%%%%

     stopping ...
 ZPOTRF exited with INFO=           17

 %%%%%%%%%%%%%%%%%%%%%%%%%%%%%%%%%%%%%%%%%%%%%%%%%%%%%%%%%%%%%%%%%%%%%%%%%%%%%%
     Error in routine ZPOTRF (1):
     Cholesky failed in invchol.
 %%%%%%%%%%%%%%%%%%%%%%%%%%%%%%%%%%%%%%%%%%%%%%%%%%%%%%%%%%%%%%%%%%%%%%%%%%%%%%

     stopping ...
 ZPOTRF exited with INFO=           17

 %%%%%%%%%%%%%%%%%%%%%%%%%%%%%%%%%%%%%%%%%%%%%%%%%%%%%%%%%%%%%%%%%%%%%%%%%%%%%%
     Error in routine ZPOTRF (1):
     Cholesky failed in invchol.
 %%%%%%%%%%%%%%%%%%%%%%%%%%%%%%%%%%%%%%%%%%%%%%%%%%%%%%%%%%%%%%%%%%%%%%%%%%%%%%

     stopping ...
 ZPOTRF exited with INFO=           17

 %%%%%%%%%%%%%%%%%%%%%%%%%%%%%%%%%%%%%%%%%%%%%%%%%%%%%%%%%%%%%%%%%%%%%%%%%%%%%%
     Error in routine ZPOTRF (1):
     Cholesky failed in invchol.
 %%%%%%%%%%%%%%%%%%%%%%%%%%%%%%%%%%%%%%%%%%%%%%%%%%%%%%%%%%%%%%%%%%%%%%%%%%%%%%

     stopping ...
 ZPOTRF exited with INFO=           17

 %%%%%%%%%%%%%%%%%%%%%%%%%%%%%%%%%%%%%%%%%%%%%%%%%%%%%%%%%%%%%%%%%%%%%%%%%%%%%%
     Error in routine ZPOTRF (1):
     Cholesky failed in invchol.
 %%%%%%%%%%%%%%%%%%%%%%%%%%%%%%%%%%%%%%%%%%%%%%%%%%%%%%%%%%%%%%%%%%%%%%%%%%%%%%

     stopping ...
 ZPOTRF exited with INFO=           17

 %%%%%%%%%%%%%%%%%%%%%%%%%%%%%%%%%%%%%%%%%%%%%%%%%%%%%%%%%%%%%%%%%%%%%%%%%%%%%%
     Error in routine ZPOTRF (1):
     Cholesky failed in invchol.
 %%%%%%%%%%%%%%%%%%%%%%%%%%%%%%%%%%%%%%%%%%%%%%%%%%%%%%%%%%%%%%%%%%%%%%%%%%%%%%

     stopping ...
 ZPOTRF exited with INFO=           17

 %%%%%%%%%%%%%%%%%%%%%%%%%%%%%%%%%%%%%%%%%%%%%%%%%%%%%%%%%%%%%%%%%%%%%%%%%%%%%%
     Error in routine ZPOTRF (1):
     Cholesky failed in invchol.
 %%%%%%%%%%%%%%%%%%%%%%%%%%%%%%%%%%%%%%%%%%%%%%%%%%%%%%%%%%%%%%%%%%%%%%%%%%%%%%

     stopping ...
 ZPOTRF exited with INFO=           17

 %%%%%%%%%%%%%%%%%%%%%%%%%%%%%%%%%%%%%%%%%%%%%%%%%%%%%%%%%%%%%%%%%%%%%%%%%%%%%%
     Error in routine ZPOTRF (1):
     Cholesky failed in invchol.
 %%%%%%%%%%%%%%%%%%%%%%%%%%%%%%%%%%%%%%%%%%%%%%%%%%%%%%%%%%%%%%%%%%%%%%%%%%%%%%

     stopping ...
 ZPOTRF exited with INFO=           17

 %%%%%%%%%%%%%%%%%%%%%%%%%%%%%%%%%%%%%%%%%%%%%%%%%%%%%%%%%%%%%%%%%%%%%%%%%%%%%%
     Error in routine ZPOTRF (1):
     Cholesky failed in invchol.
 %%%%%%%%%%%%%%%%%%%%%%%%%%%%%%%%%%%%%%%%%%%%%%%%%%%%%%%%%%%%%%%%%%%%%%%%%%%%%%

     stopping ...
 ZPOTRF exited with INFO=           17

 %%%%%%%%%%%%%%%%%%%%%%%%%%%%%%%%%%%%%%%%%%%%%%%%%%%%%%%%%%%%%%%%%%%%%%%%%%%%%%
     Error in routine ZPOTRF (1):
     Cholesky failed in invchol.
 %%%%%%%%%%%%%%%%%%%%%%%%%%%%%%%%%%%%%%%%%%%%%%%%%%%%%%%%%%%%%%%%%%%%%%%%%%%%%%

     stopping ...
 ZPOTRF exited with INFO=           17

 %%%%%%%%%%%%%%%%%%%%%%%%%%%%%%%%%%%%%%%%%%%%%%%%%%%%%%%%%%%%%%%%%%%%%%%%%%%%%%
     Error in routine ZPOTRF (1):
     Cholesky failed in invchol.
 %%%%%%%%%%%%%%%%%%%%%%%%%%%%%%%%%%%%%%%%%%%%%%%%%%%%%%%%%%%%%%%%%%%%%%%%%%%%%%

     stopping ...
 ZPOTRF exited with INFO=           17

 %%%%%%%%%%%%%%%%%%%%%%%%%%%%%%%%%%%%%%%%%%%%%%%%%%%%%%%%%%%%%%%%%%%%%%%%%%%%%%
     Error in routine ZPOTRF (1):
     Cholesky failed in invchol.
 %%%%%%%%%%%%%%%%%%%%%%%%%%%%%%%%%%%%%%%%%%%%%%%%%%%%%%%%%%%%%%%%%%%%%%%%%%%%%%

     stopping ...
 ZPOTRF exited with INFO=           17

 %%%%%%%%%%%%%%%%%%%%%%%%%%%%%%%%%%%%%%%%%%%%%%%%%%%%%%%%%%%%%%%%%%%%%%%%%%%%%%
     Error in routine ZPOTRF (1):
     Cholesky failed in invchol.
 %%%%%%%%%%%%%%%%%%%%%%%%%%%%%%%%%%%%%%%%%%%%%%%%%%%%%%%%%%%%%%%%%%%%%%%%%%%%%%

     stopping ...
 ZPOTRF exited with INFO=           17

 %%%%%%%%%%%%%%%%%%%%%%%%%%%%%%%%%%%%%%%%%%%%%%%%%%%%%%%%%%%%%%%%%%%%%%%%%%%%%%
     Error in routine ZPOTRF (1):
     Cholesky failed in invchol.
 %%%%%%%%%%%%%%%%%%%%%%%%%%%%%%%%%%%%%%%%%%%%%%%%%%%%%%%%%%%%%%%%%%%%%%%%%%%%%%

     stopping ...
 ZPOTRF exited with INFO=           17

 %%%%%%%%%%%%%%%%%%%%%%%%%%%%%%%%%%%%%%%%%%%%%%%%%%%%%%%%%%%%%%%%%%%%%%%%%%%%%%
     Error in routine ZPOTRF (1):
     Cholesky failed in invchol.
 %%%%%%%%%%%%%%%%%%%%%%%%%%%%%%%%%%%%%%%%%%%%%%%%%%%%%%%%%%%%%%%%%%%%%%%%%%%%%%

     stopping ...
 ZPOTRF exited with INFO=           17

 %%%%%%%%%%%%%%%%%%%%%%%%%%%%%%%%%%%%%%%%%%%%%%%%%%%%%%%%%%%%%%%%%%%%%%%%%%%%%%
     Error in routine ZPOTRF (1):
     Cholesky failed in invchol.
 %%%%%%%%%%%%%%%%%%%%%%%%%%%%%%%%%%%%%%%%%%%%%%%%%%%%%%%%%%%%%%%%%%%%%%%%%%%%%%

     stopping ...
 ZPOTRF exited with INFO=           17

 %%%%%%%%%%%%%%%%%%%%%%%%%%%%%%%%%%%%%%%%%%%%%%%%%%%%%%%%%%%%%%%%%%%%%%%%%%%%%%
     Error in routine ZPOTRF (1):
     Cholesky failed in invchol.
 %%%%%%%%%%%%%%%%%%%%%%%%%%%%%%%%%%%%%%%%%%%%%%%%%%%%%%%%%%%%%%%%%%%%%%%%%%%%%%

     stopping ...
 ZPOTRF exited with INFO=           17

 %%%%%%%%%%%%%%%%%%%%%%%%%%%%%%%%%%%%%%%%%%%%%%%%%%%%%%%%%%%%%%%%%%%%%%%%%%%%%%
     Error in routine ZPOTRF (1):
     Cholesky failed in invchol.
 %%%%%%%%%%%%%%%%%%%%%%%%%%%%%%%%%%%%%%%%%%%%%%%%%%%%%%%%%%%%%%%%%%%%%%%%%%%%%%

     stopping ...
 ZPOTRF exited with INFO=           17

 %%%%%%%%%%%%%%%%%%%%%%%%%%%%%%%%%%%%%%%%%%%%%%%%%%%%%%%%%%%%%%%%%%%%%%%%%%%%%%
     Error in routine ZPOTRF (1):
     Cholesky failed in invchol.
 %%%%%%%%%%%%%%%%%%%%%%%%%%%%%%%%%%%%%%%%%%%%%%%%%%%%%%%%%%%%%%%%%%%%%%%%%%%%%%

     stopping ...
 ZPOTRF exited with INFO=           17

 %%%%%%%%%%%%%%%%%%%%%%%%%%%%%%%%%%%%%%%%%%%%%%%%%%%%%%%%%%%%%%%%%%%%%%%%%%%%%%
     Error in routine ZPOTRF (1):
     Cholesky failed in invchol.
 %%%%%%%%%%%%%%%%%%%%%%%%%%%%%%%%%%%%%%%%%%%%%%%%%%%%%%%%%%%%%%%%%%%%%%%%%%%%%%

     stopping ...
 ZPOTRF exited with INFO=           17

 %%%%%%%%%%%%%%%%%%%%%%%%%%%%%%%%%%%%%%%%%%%%%%%%%%%%%%%%%%%%%%%%%%%%%%%%%%%%%%
     Error in routine ZPOTRF (1):
     Cholesky failed in invchol.
 %%%%%%%%%%%%%%%%%%%%%%%%%%%%%%%%%%%%%%%%%%%%%%%%%%%%%%%%%%%%%%%%%%%%%%%%%%%%%%

     stopping ...
 ZPOTRF exited with INFO=           17

 %%%%%%%%%%%%%%%%%%%%%%%%%%%%%%%%%%%%%%%%%%%%%%%%%%%%%%%%%%%%%%%%%%%%%%%%%%%%%%
     Error in routine ZPOTRF (1):
     Cholesky failed in invchol.
 %%%%%%%%%%%%%%%%%%%%%%%%%%%%%%%%%%%%%%%%%%%%%%%%%%%%%%%%%%%%%%%%%%%%%%%%%%%%%%

     stopping ...
 ZPOTRF exited with INFO=           17

 %%%%%%%%%%%%%%%%%%%%%%%%%%%%%%%%%%%%%%%%%%%%%%%%%%%%%%%%%%%%%%%%%%%%%%%%%%%%%%
     Error in routine ZPOTRF (1):
     Cholesky failed in invchol.
 %%%%%%%%%%%%%%%%%%%%%%%%%%%%%%%%%%%%%%%%%%%%%%%%%%%%%%%%%%%%%%%%%%%%%%%%%%%%%%

     stopping ...
 ZPOTRF exited with INFO=           17

 %%%%%%%%%%%%%%%%%%%%%%%%%%%%%%%%%%%%%%%%%%%%%%%%%%%%%%%%%%%%%%%%%%%%%%%%%%%%%%
     Error in routine ZPOTRF (1):
     Cholesky failed in invchol.
 %%%%%%%%%%%%%%%%%%%%%%%%%%%%%%%%%%%%%%%%%%%%%%%%%%%%%%%%%%%%%%%%%%%%%%%%%%%%%%

     stopping ...
 ZPOTRF exited with INFO=           17

 %%%%%%%%%%%%%%%%%%%%%%%%%%%%%%%%%%%%%%%%%%%%%%%%%%%%%%%%%%%%%%%%%%%%%%%%%%%%%%
     Error in routine ZPOTRF (1):
     Cholesky failed in invchol.
 %%%%%%%%%%%%%%%%%%%%%%%%%%%%%%%%%%%%%%%%%%%%%%%%%%%%%%%%%%%%%%%%%%%%%%%%%%%%%%

     stopping ...
 ZPOTRF exited with INFO=           17

 %%%%%%%%%%%%%%%%%%%%%%%%%%%%%%%%%%%%%%%%%%%%%%%%%%%%%%%%%%%%%%%%%%%%%%%%%%%%%%
     Error in routine ZPOTRF (1):
     Cholesky failed in invchol.
 %%%%%%%%%%%%%%%%%%%%%%%%%%%%%%%%%%%%%%%%%%%%%%%%%%%%%%%%%%%%%%%%%%%%%%%%%%%%%%

     stopping ...
 ZPOTRF exited with INFO=           17

 %%%%%%%%%%%%%%%%%%%%%%%%%%%%%%%%%%%%%%%%%%%%%%%%%%%%%%%%%%%%%%%%%%%%%%%%%%%%%%
     Error in routine ZPOTRF (1):
     Cholesky failed in invchol.
 %%%%%%%%%%%%%%%%%%%%%%%%%%%%%%%%%%%%%%%%%%%%%%%%%%%%%%%%%%%%%%%%%%%%%%%%%%%%%%

     stopping ...
 ZPOTRF exited with INFO=           17

 %%%%%%%%%%%%%%%%%%%%%%%%%%%%%%%%%%%%%%%%%%%%%%%%%%%%%%%%%%%%%%%%%%%%%%%%%%%%%%
     Error in routine ZPOTRF (1):
     Cholesky failed in invchol.
 %%%%%%%%%%%%%%%%%%%%%%%%%%%%%%%%%%%%%%%%%%%%%%%%%%%%%%%%%%%%%%%%%%%%%%%%%%%%%%

     stopping ...
 ZPOTRF exited with INFO=           17

 %%%%%%%%%%%%%%%%%%%%%%%%%%%%%%%%%%%%%%%%%%%%%%%%%%%%%%%%%%%%%%%%%%%%%%%%%%%%%%
     Error in routine ZPOTRF (1):
     Cholesky failed in invchol.
 %%%%%%%%%%%%%%%%%%%%%%%%%%%%%%%%%%%%%%%%%%%%%%%%%%%%%%%%%%%%%%%%%%%%%%%%%%%%%%

     stopping ...
 ZPOTRF exited with INFO=           17

 %%%%%%%%%%%%%%%%%%%%%%%%%%%%%%%%%%%%%%%%%%%%%%%%%%%%%%%%%%%%%%%%%%%%%%%%%%%%%%
     Error in routine ZPOTRF (1):
     Cholesky failed in invchol.
 %%%%%%%%%%%%%%%%%%%%%%%%%%%%%%%%%%%%%%%%%%%%%%%%%%%%%%%%%%%%%%%%%%%%%%%%%%%%%%

     stopping ...
 ZPOTRF exited with INFO=           17

 %%%%%%%%%%%%%%%%%%%%%%%%%%%%%%%%%%%%%%%%%%%%%%%%%%%%%%%%%%%%%%%%%%%%%%%%%%%%%%
     Error in routine ZPOTRF (1):
     Cholesky failed in invchol.
 %%%%%%%%%%%%%%%%%%%%%%%%%%%%%%%%%%%%%%%%%%%%%%%%%%%%%%%%%%%%%%%%%%%%%%%%%%%%%%

     stopping ...
 ZPOTRF exited with INFO=           17

 %%%%%%%%%%%%%%%%%%%%%%%%%%%%%%%%%%%%%%%%%%%%%%%%%%%%%%%%%%%%%%%%%%%%%%%%%%%%%%
     Error in routine ZPOTRF (1):
     Cholesky failed in invchol.
 %%%%%%%%%%%%%%%%%%%%%%%%%%%%%%%%%%%%%%%%%%%%%%%%%%%%%%%%%%%%%%%%%%%%%%%%%%%%%%

     stopping ...
 ZPOTRF exited with INFO=           17

 %%%%%%%%%%%%%%%%%%%%%%%%%%%%%%%%%%%%%%%%%%%%%%%%%%%%%%%%%%%%%%%%%%%%%%%%%%%%%%
     Error in routine ZPOTRF (1):
     Cholesky failed in invchol.
 %%%%%%%%%%%%%%%%%%%%%%%%%%%%%%%%%%%%%%%%%%%%%%%%%%%%%%%%%%%%%%%%%%%%%%%%%%%%%%

     stopping ...
 ZPOTRF exited with INFO=           17

 %%%%%%%%%%%%%%%%%%%%%%%%%%%%%%%%%%%%%%%%%%%%%%%%%%%%%%%%%%%%%%%%%%%%%%%%%%%%%%
     Error in routine ZPOTRF (1):
     Cholesky failed in invchol.
 %%%%%%%%%%%%%%%%%%%%%%%%%%%%%%%%%%%%%%%%%%%%%%%%%%%%%%%%%%%%%%%%%%%%%%%%%%%%%%

     stopping ...
 ZPOTRF exited with INFO=           17

 %%%%%%%%%%%%%%%%%%%%%%%%%%%%%%%%%%%%%%%%%%%%%%%%%%%%%%%%%%%%%%%%%%%%%%%%%%%%%%
     Error in routine ZPOTRF (1):
     Cholesky failed in invchol.
 %%%%%%%%%%%%%%%%%%%%%%%%%%%%%%%%%%%%%%%%%%%%%%%%%%%%%%%%%%%%%%%%%%%%%%%%%%%%%%

     stopping ...
 ZPOTRF exited with INFO=           17

 %%%%%%%%%%%%%%%%%%%%%%%%%%%%%%%%%%%%%%%%%%%%%%%%%%%%%%%%%%%%%%%%%%%%%%%%%%%%%%
     Error in routine ZPOTRF (1):
     Cholesky failed in invchol.
 %%%%%%%%%%%%%%%%%%%%%%%%%%%%%%%%%%%%%%%%%%%%%%%%%%%%%%%%%%%%%%%%%%%%%%%%%%%%%%

     stopping ...
 ZPOTRF exited with INFO=           17

 %%%%%%%%%%%%%%%%%%%%%%%%%%%%%%%%%%%%%%%%%%%%%%%%%%%%%%%%%%%%%%%%%%%%%%%%%%%%%%
     Error in routine ZPOTRF (1):
     Cholesky failed in invchol.
 %%%%%%%%%%%%%%%%%%%%%%%%%%%%%%%%%%%%%%%%%%%%%%%%%%%%%%%%%%%%%%%%%%%%%%%%%%%%%%

     stopping ...
 ZPOTRF exited with INFO=           17

 %%%%%%%%%%%%%%%%%%%%%%%%%%%%%%%%%%%%%%%%%%%%%%%%%%%%%%%%%%%%%%%%%%%%%%%%%%%%%%
     Error in routine ZPOTRF (1):
     Cholesky failed in invchol.
 %%%%%%%%%%%%%%%%%%%%%%%%%%%%%%%%%%%%%%%%%%%%%%%%%%%%%%%%%%%%%%%%%%%%%%%%%%%%%%

     stopping ...
 ZPOTRF exited with INFO=           17

 %%%%%%%%%%%%%%%%%%%%%%%%%%%%%%%%%%%%%%%%%%%%%%%%%%%%%%%%%%%%%%%%%%%%%%%%%%%%%%
     Error in routine ZPOTRF (1):
     Cholesky failed in invchol.
 %%%%%%%%%%%%%%%%%%%%%%%%%%%%%%%%%%%%%%%%%%%%%%%%%%%%%%%%%%%%%%%%%%%%%%%%%%%%%%

     stopping ...
 ZPOTRF exited with INFO=           17

 %%%%%%%%%%%%%%%%%%%%%%%%%%%%%%%%%%%%%%%%%%%%%%%%%%%%%%%%%%%%%%%%%%%%%%%%%%%%%%
     Error in routine ZPOTRF (1):
     Cholesky failed in invchol.
 %%%%%%%%%%%%%%%%%%%%%%%%%%%%%%%%%%%%%%%%%%%%%%%%%%%%%%%%%%%%%%%%%%%%%%%%%%%%%%

     stopping ...
 ZPOTRF exited with INFO=           17

 %%%%%%%%%%%%%%%%%%%%%%%%%%%%%%%%%%%%%%%%%%%%%%%%%%%%%%%%%%%%%%%%%%%%%%%%%%%%%%
     Error in routine ZPOTRF (1):
     Cholesky failed in invchol.
 %%%%%%%%%%%%%%%%%%%%%%%%%%%%%%%%%%%%%%%%%%%%%%%%%%%%%%%%%%%%%%%%%%%%%%%%%%%%%%

     stopping ...
 ZPOTRF exited with INFO=           17

 %%%%%%%%%%%%%%%%%%%%%%%%%%%%%%%%%%%%%%%%%%%%%%%%%%%%%%%%%%%%%%%%%%%%%%%%%%%%%%
     Error in routine ZPOTRF (1):
     Cholesky failed in invchol.
 %%%%%%%%%%%%%%%%%%%%%%%%%%%%%%%%%%%%%%%%%%%%%%%%%%%%%%%%%%%%%%%%%%%%%%%%%%%%%%

     stopping ...
 ZPOTRF exited with INFO=           17

 %%%%%%%%%%%%%%%%%%%%%%%%%%%%%%%%%%%%%%%%%%%%%%%%%%%%%%%%%%%%%%%%%%%%%%%%%%%%%%
     Error in routine ZPOTRF (1):
     Cholesky failed in invchol.
 %%%%%%%%%%%%%%%%%%%%%%%%%%%%%%%%%%%%%%%%%%%%%%%%%%%%%%%%%%%%%%%%%%%%%%%%%%%%%%

     stopping ...
 ZPOTRF exited with INFO=           17

 %%%%%%%%%%%%%%%%%%%%%%%%%%%%%%%%%%%%%%%%%%%%%%%%%%%%%%%%%%%%%%%%%%%%%%%%%%%%%%
     Error in routine ZPOTRF (1):
     Cholesky failed in invchol.
 %%%%%%%%%%%%%%%%%%%%%%%%%%%%%%%%%%%%%%%%%%%%%%%%%%%%%%%%%%%%%%%%%%%%%%%%%%%%%%

     stopping ...
 ZPOTRF exited with INFO=           17

 %%%%%%%%%%%%%%%%%%%%%%%%%%%%%%%%%%%%%%%%%%%%%%%%%%%%%%%%%%%%%%%%%%%%%%%%%%%%%%
     Error in routine ZPOTRF (1):
     Cholesky failed in invchol.
 %%%%%%%%%%%%%%%%%%%%%%%%%%%%%%%%%%%%%%%%%%%%%%%%%%%%%%%%%%%%%%%%%%%%%%%%%%%%%%

     stopping ...
 ZPOTRF exited with INFO=           17

 %%%%%%%%%%%%%%%%%%%%%%%%%%%%%%%%%%%%%%%%%%%%%%%%%%%%%%%%%%%%%%%%%%%%%%%%%%%%%%
     Error in routine ZPOTRF (1):
     Cholesky failed in invchol.
 %%%%%%%%%%%%%%%%%%%%%%%%%%%%%%%%%%%%%%%%%%%%%%%%%%%%%%%%%%%%%%%%%%%%%%%%%%%%%%

     stopping ...
 ZPOTRF exited with INFO=           17

 %%%%%%%%%%%%%%%%%%%%%%%%%%%%%%%%%%%%%%%%%%%%%%%%%%%%%%%%%%%%%%%%%%%%%%%%%%%%%%
     Error in routine ZPOTRF (1):
     Cholesky failed in invchol.
 %%%%%%%%%%%%%%%%%%%%%%%%%%%%%%%%%%%%%%%%%%%%%%%%%%%%%%%%%%%%%%%%%%%%%%%%%%%%%%

     stopping ...
 ZPOTRF exited with INFO=           17

 %%%%%%%%%%%%%%%%%%%%%%%%%%%%%%%%%%%%%%%%%%%%%%%%%%%%%%%%%%%%%%%%%%%%%%%%%%%%%%
     Error in routine ZPOTRF (1):
     Cholesky failed in invchol.
 %%%%%%%%%%%%%%%%%%%%%%%%%%%%%%%%%%%%%%%%%%%%%%%%%%%%%%%%%%%%%%%%%%%%%%%%%%%%%%

     stopping ...
 ZPOTRF exited with INFO=           17

 %%%%%%%%%%%%%%%%%%%%%%%%%%%%%%%%%%%%%%%%%%%%%%%%%%%%%%%%%%%%%%%%%%%%%%%%%%%%%%
     Error in routine ZPOTRF (1):
     Cholesky failed in invchol.
 %%%%%%%%%%%%%%%%%%%%%%%%%%%%%%%%%%%%%%%%%%%%%%%%%%%%%%%%%%%%%%%%%%%%%%%%%%%%%%

     stopping ...
 ZPOTRF exited with INFO=           17

 %%%%%%%%%%%%%%%%%%%%%%%%%%%%%%%%%%%%%%%%%%%%%%%%%%%%%%%%%%%%%%%%%%%%%%%%%%%%%%
     Error in routine ZPOTRF (1):
     Cholesky failed in invchol.
 %%%%%%%%%%%%%%%%%%%%%%%%%%%%%%%%%%%%%%%%%%%%%%%%%%%%%%%%%%%%%%%%%%%%%%%%%%%%%%

     stopping ...
 ZPOTRF exited with INFO=           17

 %%%%%%%%%%%%%%%%%%%%%%%%%%%%%%%%%%%%%%%%%%%%%%%%%%%%%%%%%%%%%%%%%%%%%%%%%%%%%%
     Error in routine ZPOTRF (1):
     Cholesky failed in invchol.
 %%%%%%%%%%%%%%%%%%%%%%%%%%%%%%%%%%%%%%%%%%%%%%%%%%%%%%%%%%%%%%%%%%%%%%%%%%%%%%

     stopping ...
 ZPOTRF exited with INFO=           17

 %%%%%%%%%%%%%%%%%%%%%%%%%%%%%%%%%%%%%%%%%%%%%%%%%%%%%%%%%%%%%%%%%%%%%%%%%%%%%%
     Error in routine ZPOTRF (1):
     Cholesky failed in invchol.
 %%%%%%%%%%%%%%%%%%%%%%%%%%%%%%%%%%%%%%%%%%%%%%%%%%%%%%%%%%%%%%%%%%%%%%%%%%%%%%

     stopping ...
 ZPOTRF exited with INFO=           17

 %%%%%%%%%%%%%%%%%%%%%%%%%%%%%%%%%%%%%%%%%%%%%%%%%%%%%%%%%%%%%%%%%%%%%%%%%%%%%%
     Error in routine ZPOTRF (1):
     Cholesky failed in invchol.
 %%%%%%%%%%%%%%%%%%%%%%%%%%%%%%%%%%%%%%%%%%%%%%%%%%%%%%%%%%%%%%%%%%%%%%%%%%%%%%

     stopping ...
 ZPOTRF exited with INFO=           17

 %%%%%%%%%%%%%%%%%%%%%%%%%%%%%%%%%%%%%%%%%%%%%%%%%%%%%%%%%%%%%%%%%%%%%%%%%%%%%%
     Error in routine ZPOTRF (1):
     Cholesky failed in invchol.
 %%%%%%%%%%%%%%%%%%%%%%%%%%%%%%%%%%%%%%%%%%%%%%%%%%%%%%%%%%%%%%%%%%%%%%%%%%%%%%

     stopping ...
 ZPOTRF exited with INFO=           17

 %%%%%%%%%%%%%%%%%%%%%%%%%%%%%%%%%%%%%%%%%%%%%%%%%%%%%%%%%%%%%%%%%%%%%%%%%%%%%%
     Error in routine ZPOTRF (1):
     Cholesky failed in invchol.
 %%%%%%%%%%%%%%%%%%%%%%%%%%%%%%%%%%%%%%%%%%%%%%%%%%%%%%%%%%%%%%%%%%%%%%%%%%%%%%

     stopping ...
 ZPOTRF exited with INFO=           17

 %%%%%%%%%%%%%%%%%%%%%%%%%%%%%%%%%%%%%%%%%%%%%%%%%%%%%%%%%%%%%%%%%%%%%%%%%%%%%%
     Error in routine ZPOTRF (1):
     Cholesky failed in invchol.
 %%%%%%%%%%%%%%%%%%%%%%%%%%%%%%%%%%%%%%%%%%%%%%%%%%%%%%%%%%%%%%%%%%%%%%%%%%%%%%

     stopping ...
 ZPOTRF exited with INFO=           17

 %%%%%%%%%%%%%%%%%%%%%%%%%%%%%%%%%%%%%%%%%%%%%%%%%%%%%%%%%%%%%%%%%%%%%%%%%%%%%%
     Error in routine ZPOTRF (1):
     Cholesky failed in invchol.
 %%%%%%%%%%%%%%%%%%%%%%%%%%%%%%%%%%%%%%%%%%%%%%%%%%%%%%%%%%%%%%%%%%%%%%%%%%%%%%

     stopping ...
 ZPOTRF exited with INFO=           17

 %%%%%%%%%%%%%%%%%%%%%%%%%%%%%%%%%%%%%%%%%%%%%%%%%%%%%%%%%%%%%%%%%%%%%%%%%%%%%%
     Error in routine ZPOTRF (1):
     Cholesky failed in invchol.
 %%%%%%%%%%%%%%%%%%%%%%%%%%%%%%%%%%%%%%%%%%%%%%%%%%%%%%%%%%%%%%%%%%%%%%%%%%%%%%

     stopping ...
 ZPOTRF exited with INFO=           17

 %%%%%%%%%%%%%%%%%%%%%%%%%%%%%%%%%%%%%%%%%%%%%%%%%%%%%%%%%%%%%%%%%%%%%%%%%%%%%%
     Error in routine ZPOTRF (1):
     Cholesky failed in invchol.
 %%%%%%%%%%%%%%%%%%%%%%%%%%%%%%%%%%%%%%%%%%%%%%%%%%%%%%%%%%%%%%%%%%%%%%%%%%%%%%

     stopping ...
