
     Program PWSCF v.6.4.1 starts on 13Oct2021 at 18:19:17 

     This program is part of the open-source Quantum ESPRESSO suite
     for quantum simulation of materials; please cite
         "P. Giannozzi et al., J. Phys.:Condens. Matter 21 395502 (2009);
         "P. Giannozzi et al., J. Phys.:Condens. Matter 29 465901 (2017);
          URL http://www.quantum-espresso.org", 
     in publications or presentations arising from this work. More details at
     http://www.quantum-espresso.org/quote

     Parallel version (MPI & OpenMP), running on      36 processor cores
     Number of MPI processes:                36
     Threads/MPI process:                     1

     MPI processes distributed on     1 nodes
     R & G space division:  proc/nbgrp/npool/nimage =      36
     Reading input from scf.in

     Current dimensions of program PWSCF are:
     Max number of different atomic species (ntypx) = 10
     Max number of k-points (npk) =  40000
     Max angular momentum in pseudopotentials (lmaxx) =  3

     Atomic positions and unit cell read from directory:
     pwscf_output/pwscf.save/
 
     Message from routine readpp:
     file pwscf_output/pwscf.save/Co.opt.upf not found
     Message from routine readpp:
     file pwscf_output/pwscf.save/Co.opt.upf not found
     Message from routine readpp:
     file pwscf_output/pwscf.save/La.ropt1.upf not found
     Message from routine readpp:
     file pwscf_output/pwscf.save/Ni.opt.upf not found
     Message from routine readpp:
     file pwscf_output/pwscf.save/O.opt.upf not found

     IMPORTANT: XC functional enforced from input :
     Exchange-correlation      = LDA ( 1  1  0  0 0 0)
     Any further DFT definition will be discarded
     Please, verify this is what you really want


     Subspace diagonalization in iterative solution of the eigenvalue problem:
     one sub-group per band group will be used
     scalapack distributed-memory algorithm (size of sub-group:  4*  4 procs)

 
     Parallelization info
     --------------------
     sticks:   dense  smooth     PW     G-vecs:    dense   smooth      PW
     Min        1125    1125    289               160176   160176   20844
     Max        1126    1126    290               160182   160182   20847
     Sum       40533   40533  10413              5766487  5766487  750431
 


     bravais-lattice index     =            0
     lattice parameter (alat)  =      18.3955  a.u.
     unit-cell volume          =    6518.7163 (a.u.)^3
     number of atoms/cell      =           80
     number of atomic types    =            5
     number of electrons       =       737.00
     number of Kohn-Sham states=          443
     kinetic-energy cutoff     =     350.0000  Ry
     charge density cutoff     =    1400.0000  Ry
     convergence threshold     =      1.0E-05
     mixing beta               =       0.1000
     number of iterations used =            8  plain     mixing
     Exchange-correlation      = LDA ( 1  1  0  0 0 0)

     celldm(1)=  18.395514  celldm(2)=   0.000000  celldm(3)=   0.000000
     celldm(4)=   0.000000  celldm(5)=   0.000000  celldm(6)=   0.000000

     crystal axes: (cart. coord. in units of alat)
               a(1) = (   1.000000   0.000000   0.000000 )  
               a(2) = (   0.333333   1.075078   0.000000 )  
               a(3) = (   0.166667  -0.082572   0.974062 )  

     reciprocal axes: (cart. coord. in units 2 pi/alat)
               b(1) = (  1.000000 -0.310055 -0.197388 )  
               b(2) = (  0.000000  0.930165  0.078850 )  
               b(3) = (  0.000000  0.000000  1.026629 )  


     PseudoPot. # 1 for Co read from file:
     ./Co.opt.upf
     MD5 check sum: cbea422ea0772e228e39f0fc3ccfb1ba
     Pseudo is Norm-conserving, Zval = 17.0
     Generated by new atomic code, or converted to UPF format
     Using radial grid of 1161 points,  2 beta functions with: 
                l(1) =   0
                l(2) =   2

     PseudoPot. # 2 for Co read from file:
     ./Co.opt.upf
     MD5 check sum: cbea422ea0772e228e39f0fc3ccfb1ba
     Pseudo is Norm-conserving, Zval = 17.0
     Generated by new atomic code, or converted to UPF format
     Using radial grid of 1161 points,  2 beta functions with: 
                l(1) =   0
                l(2) =   2

     PseudoPot. # 3 for La read from file:
     ./La.ropt1.upf
     MD5 check sum: afd03827907f86c9752dba134992df7c
     Pseudo is Norm-conserving, Zval = 11.0
     Generated by new atomic code, or converted to UPF format
     Using radial grid of 1180 points,  2 beta functions with: 
                l(1) =   0
                l(2) =   2

     PseudoPot. # 4 for Ni read from file:
     ./Ni.opt.upf
     MD5 check sum: b7edf10417f5f3caa9f11af4e9f0b2a2
     Pseudo is Norm-conserving, Zval = 18.0
     Generated by new atomic code, or converted to UPF format
     Using radial grid of 1162 points,  2 beta functions with: 
                l(1) =   0
                l(2) =   2

     PseudoPot. # 5 for O  read from file:
     ./O.opt.upf
     MD5 check sum: 0b670aeee1f35195f09134313df81f8f
     Pseudo is Norm-conserving, Zval =  6.0
     Generated by new atomic code, or converted to UPF format
     Using radial grid of 1130 points,  1 beta functions with: 
                l(1) =   1

     atomic species   valence    mass     pseudopotential
        Co1           17.00    58.93300     Co( 1.00)
        Co2           17.00    58.93300     Co( 1.00)
        La            11.00   138.92000     La( 1.00)
        Ni            18.00    58.69000     Ni( 1.00)
        O              6.00    15.99900     O ( 1.00)

     Starting magnetic structure 
     atomic species   magnetization
        Co1          0.500
        Co2         -0.500
        La           0.000
        Ni          -0.500
        O            0.000


     Simplified LDA+U calculation (l_max = 2) with parameters (eV):
     atomic species    L          U    alpha       J0     beta
        Co1            2     6.0000   0.0000   0.0000   0.0000
        Co2            2     6.0000   0.0000   0.0000   0.0000
        Ni             2     4.0000   0.0000   0.0000   0.0000



     No symmetry found



   Cartesian axes

     site n.     atom                  positions (alat units)
         1           La  tau(   1) = (   1.0000000   0.2868835   0.1826366  )
         2           La  tau(   2) = (   1.0000000  -0.0231717   0.6696675  )
         3           La  tau(   3) = (   0.6666667   0.3593395   0.9131830  )
         4           La  tau(   4) = (   1.1666667   0.8244222   0.1826366  )
         5           La  tau(   5) = (   1.1666667   0.5143671   0.6696675  )
         6           La  tau(   6) = (   0.8333333   0.8968783   0.9131830  )
         7           La  tau(   7) = (   0.6666667   0.6693947   0.4261521  )
         8           La  tau(   8) = (   0.5000000   0.1318558   0.4261521  )
         9           La  tau(   9) = (   1.0000000   0.8606501   0.5479098  )
        10           La  tau(  10) = (   0.8333333   0.6331666   0.0608789  )
        11           La  tau(  11) = (   0.5000000   1.0156777   0.3043943  )
        12           La  tau(  12) = (   0.8333333   0.3231114   0.5479098  )
        13           La  tau(  13) = (   0.6666667   0.0956278   0.0608789  )
        14           La  tau(  14) = (   0.3333333   0.4781390   0.3043943  )
        15           La  tau(  15) = (   0.3333333   0.1680839   0.7914253  )
        16           La  tau(  16) = (   0.5000000   0.7056226   0.7914253  )
        17           Co1 tau(  17) = (   1.0000000   0.5737668   0.3652732  )
        18           Co1 tau(  18) = (   1.0000000   0.2637117   0.8523041  )
        19           Co1 tau(  19) = (   0.5000000   0.7287944   0.1217577  )
        20           Co1 tau(  20) = (   0.8333333   0.0362280   0.3652732  )
        21           Co1 tau(  21) = (   1.1666666   0.8012504   0.8523041  )
        22           Co1 tau(  22) = (   0.3333333   0.1912556   0.1217577  )
        23           Co1 tau(  23) = (   0.6666666   0.9562780   0.6087887  )
        24           Co1 tau(  24) = (   0.5000000   0.4187392   0.6087887  )
        25           Co2 tau(  25) = (   0.0000000   0.0000000   0.0000000  )
        26           Co2 tau(  26) = (   0.3333333   0.7650224   0.4870309  )
        27           Co2 tau(  27) = (   0.6666667   0.0724561   0.7305464  )
        28           Co2 tau(  28) = (   0.1666667   0.5375388   0.0000000  )
        29           Co2 tau(  29) = (   0.1666667   0.2274836   0.4870309  )
        30           Co2 tau(  30) = (   0.8333333   0.6099948   0.7305464  )
        31           Co2 tau(  31) = (   0.6666667   0.3825112   0.2435155  )
        32           Ni  tau(  32) = (   0.8333333   0.9200500   0.2435155  )
        33           O   tau(  33) = (   1.0491919   0.5662381   0.1660092  )
        34           O   tau(  34) = (   1.0491919   0.2561830   0.6530401  )
        35           O   tau(  35) = (   0.7158585   0.6386942   0.8965556  )
        36           O   tau(  36) = (   0.8825252   0.0286993   0.1660092  )
        37           O   tau(  37) = (   1.2158585   0.7937217   0.6530401  )
        38           O   tau(  38) = (   0.5491919   0.1011554   0.8965556  )
        39           O   tau(  39) = (   0.7158585   0.9487493   0.4095247  )
        40           O   tau(  40) = (   0.5491919   0.4112105   0.4095247  )
        41           O   tau(  41) = (   0.9508081   0.5812955   0.5645372  )
        42           O   tau(  42) = (   0.7841414   0.3538119   0.0775063  )
        43           O   tau(  43) = (   0.4508081   0.7363230   0.3210217  )
        44           O   tau(  44) = (   0.7841414   0.0437567   0.5645372  )
        45           O   tau(  45) = (   0.9508081   0.8913506   0.0775063  )
        46           O   tau(  46) = (   0.2841414   0.1987843   0.3210217  )
        47           O   tau(  47) = (   0.6174748   0.9638067   0.8080527  )
        48           O   tau(  48) = (   0.4508081   0.4262679   0.8080527  )
        49           O   tau(  49) = (   1.1174742   0.4112111   0.4095238  )
        50           O   tau(  50) = (   1.1174742   0.1011560   0.8965548  )
        51           O   tau(  51) = (   0.6174741   0.5662387   0.1660084  )
        52           O   tau(  52) = (   1.2841409   0.9487499   0.4095238  )
        53           O   tau(  53) = (   1.2841409   0.6386947   0.8965548  )
        54           O   tau(  54) = (   0.4508075   0.0286999   0.1660084  )
        55           O   tau(  55) = (   0.7841408   0.7937223   0.6530393  )
        56           O   tau(  56) = (   0.6174741   0.2561835   0.6530393  )
        57           O   tau(  57) = (   0.8825258   0.7363225   0.3210225  )
        58           O   tau(  58) = (   0.8825258   0.4262673   0.8080535  )
        59           O   tau(  59) = (   0.3825258   0.8913500   0.0775071  )
        60           O   tau(  60) = (   0.7158592   0.1987837   0.3210225  )
        61           O   tau(  61) = (   1.0491925   0.9638061   0.8080535  )
        62           O   tau(  62) = (   0.2158592   0.3538113   0.0775071  )
        63           O   tau(  63) = (   0.2158592   0.0437561   0.5645380  )
        64           O   tau(  64) = (   0.3825258   0.5812949   0.5645380  )
        65           O   tau(  65) = (   0.8333339   0.4569677   0.3376499  )
        66           O   tau(  66) = (   0.8333339   0.1469125   0.8246808  )
        67           O   tau(  67) = (   0.3333339   0.6119952   0.0941344  )
        68           O   tau(  68) = (   1.0000005   0.9945064   0.3376499  )
        69           O   tau(  69) = (   1.0000005   0.6844513   0.8246808  )
        70           O   tau(  70) = (   0.1666672   0.0744564   0.0941344  )
        71           O   tau(  71) = (   0.5000005   0.8394788   0.5811654  )
        72           O   tau(  72) = (   0.3333339   0.3019401   0.5811654  )
        73           O   tau(  73) = (   1.1666660   0.6905658   0.3928965  )
        74           O   tau(  74) = (   1.1666660   0.3805107   0.8799274  )
        75           O   tau(  75) = (   0.6666661   0.8455934   0.1493811  )
        76           O   tau(  76) = (   0.9999994   0.1530271   0.3928965  )
        77           O   tau(  77) = (   1.3333327   0.9180494   0.8799274  )
        78           O   tau(  78) = (   0.4999994   0.3080546   0.1493811  )
        79           O   tau(  79) = (   0.4999994  -0.0020005   0.6364120  )
        80           O   tau(  80) = (   0.6666660   0.5355382   0.6364120  )

     number of k points=     8  Methfessel-Paxton smearing, width (Ry)=  0.0100
                       cart. coord. in units 2pi/alat
        k(    1) = (   0.5000000   0.3100552   0.4540455), wk =   0.1250000
        k(    2) = (   0.0000000   0.4650827   0.5527396), wk =   0.1250000
        k(    3) = (   0.5000000  -0.1550276   0.4146203), wk =   0.1250000
        k(    4) = (   0.0000000   0.0000000   0.5133144), wk =   0.1250000
        k(    5) = (   0.5000000   0.3100552  -0.0592689), wk =   0.1250000
        k(    6) = (   0.0000000   0.4650827   0.0394252), wk =   0.1250000
        k(    7) = (   0.5000000  -0.1550276  -0.0986941), wk =   0.1250000
        k(    8) = (   0.0000000   0.0000000   0.0000000), wk =   0.1250000

     Dense  grid:  5766487 G-vectors     FFT dimensions: ( 225, 250, 225)

     Estimated max dynamical RAM per process >       4.00 GB

     Estimated total dynamical RAM >     144.01 GB
     Generating pointlists ...
     new r_m :   0.0847 (alat units)  1.5585 (a.u.) for type    1
     new r_m :   0.0847 (alat units)  1.5585 (a.u.) for type    2
     new r_m :   0.1028 (alat units)  1.8914 (a.u.) for type    3
     new r_m :   0.0847 (alat units)  1.5585 (a.u.) for type    4
     new r_m :   0.0847 (alat units)  1.5585 (a.u.) for type    5

     The initial density is read from file :
     pwscf_output/pwscf.save/charge-density

     Number of +U iterations with fixed ns =  0
     Starting occupations:
 --- enter write_ns ---
 LDA+U parameters:
U( 1)     =  6.00000000
alpha( 1) =  0.00000000
U( 2)     =  6.00000000
alpha( 2) =  0.00000000
U( 4)     =  4.00000000
alpha( 4) =  0.00000000
atom   17   Tr[ns(na)] (up, down, total) =   4.89343  1.83029  6.72372
   spin  1
    eigenvalues: 
  0.974  0.978  0.979  0.981  0.981
    eigenvectors:
  0.002  0.120  0.741  0.133  0.003
  0.003  0.011  0.131  0.659  0.196
  0.626  0.061  0.005  0.052  0.256
  0.369  0.068  0.005  0.152  0.408
  0.000  0.740  0.118  0.004  0.138
    occupations:
  0.979  0.001  0.000 -0.001  0.000
  0.001  0.981 -0.000 -0.000  0.001
  0.000 -0.000  0.976 -0.003 -0.000
 -0.001 -0.000 -0.003  0.978  0.001
  0.000  0.001 -0.000  0.001  0.979
   spin  2
    eigenvalues: 
  0.094  0.095  0.336  0.348  0.957
    eigenvectors:
  0.176  0.008  0.533  0.282  0.002
  0.792  0.000  0.049  0.156  0.003
  0.000  0.315  0.028  0.040  0.617
  0.002  0.498  0.083  0.038  0.379
  0.030  0.179  0.307  0.484  0.000
    occupations:
  0.296  0.095  0.030 -0.003 -0.004
  0.095  0.148  0.024  0.032  0.040
  0.030  0.024  0.644  0.395 -0.063
 -0.003  0.032  0.395  0.451  0.068
 -0.004  0.040 -0.063  0.068  0.292
atomic mag. moment =     3.063140
atom   18   Tr[ns(na)] (up, down, total) =   4.89431  1.82450  6.71881
   spin  1
    eigenvalues: 
  0.974  0.979  0.979  0.981  0.982
    eigenvectors:
  0.000  0.514  0.278  0.106  0.102
  0.009  0.035  0.145  0.024  0.787
  0.659  0.047  0.005  0.253  0.036
  0.330  0.124  0.012  0.525  0.009
  0.002  0.280  0.559  0.093  0.067
    occupations:
  0.979  0.001  0.000 -0.001  0.000
  0.001  0.981 -0.001 -0.000  0.000
  0.000 -0.001  0.976 -0.003 -0.001
 -0.001 -0.000 -0.003  0.978  0.000
  0.000  0.000 -0.001  0.000  0.979
   spin  2
    eigenvalues: 
  0.092  0.093  0.333  0.349  0.957
    eigenvectors:
  0.026  0.157  0.690  0.126  0.001
  0.026  0.769  0.097  0.100  0.008
  0.254  0.016  0.012  0.060  0.657
  0.544  0.005  0.056  0.061  0.333
  0.149  0.053  0.144  0.654  0.000
    occupations:
  0.292  0.093  0.023 -0.009 -0.002
  0.093  0.148  0.050  0.046  0.038
  0.023  0.050  0.679  0.383 -0.047
 -0.009  0.046  0.383  0.410  0.083
 -0.002  0.038 -0.047  0.083  0.295
atomic mag. moment =     3.069809
atom   19   Tr[ns(na)] (up, down, total) =   4.89356  1.82898  6.72254
   spin  1
    eigenvalues: 
  0.974  0.978  0.979  0.981  0.981
    eigenvectors:
  0.000  0.003  0.799  0.174  0.023
  0.003  0.042  0.128  0.771  0.057
  0.452  0.067  0.036  0.014  0.431
  0.535  0.010  0.034  0.027  0.394
  0.009  0.878  0.004  0.014  0.095
    occupations:
  0.979  0.001  0.000 -0.000 -0.000
  0.001  0.981 -0.000 -0.000  0.001
  0.000 -0.000  0.978 -0.003 -0.000
 -0.000 -0.000 -0.003  0.977  0.001
 -0.000  0.001 -0.000  0.001  0.979
   spin  2
    eigenvalues: 
  0.091  0.096  0.336  0.349  0.957
    eigenvectors:
  0.047  0.104  0.009  0.840  0.000
  0.323  0.490  0.024  0.157  0.007
  0.303  0.196  0.083  0.000  0.417
  0.131  0.188  0.110  0.001  0.569
  0.195  0.022  0.773  0.002  0.007
    occupations:
  0.310  0.089  0.008 -0.011 -0.012
  0.089  0.145  0.035  0.060  0.032
  0.008  0.035  0.474  0.398 -0.110
 -0.011  0.060  0.398  0.612  0.014
 -0.012  0.032 -0.110  0.014  0.287
atomic mag. moment =     3.064582
atom   20   Tr[ns(na)] (up, down, total) =   4.89354  1.82900  6.72254
   spin  1
    eigenvalues: 
  0.974  0.978  0.979  0.981  0.981
    eigenvectors:
  0.000  0.008  0.783  0.208  0.001
  0.001  0.043  0.130  0.603  0.222
  0.436  0.062  0.047  0.091  0.364
  0.551  0.006  0.032  0.098  0.314
  0.011  0.880  0.008  0.001  0.099
    occupations:
  0.979  0.001  0.000 -0.000 -0.000
  0.001  0.981 -0.000 -0.000  0.001
  0.000 -0.000  0.978 -0.003 -0.000
 -0.000 -0.000 -0.003  0.977  0.001
 -0.000  0.001 -0.000  0.001  0.979
   spin  2
    eigenvalues: 
  0.091  0.096  0.333  0.351  0.957
    eigenvectors:
  0.049  0.102  0.002  0.847  0.000
  0.326  0.488  0.033  0.150  0.003
  0.301  0.217  0.081  0.000  0.401
  0.130  0.172  0.109  0.003  0.586
  0.194  0.022  0.775  0.000  0.009
    occupations:
  0.312  0.090  0.012 -0.006 -0.014
  0.090  0.143  0.022  0.047  0.033
  0.012  0.022  0.459  0.396 -0.112
 -0.006  0.047  0.396  0.627  0.008
 -0.014  0.033 -0.112  0.008  0.287
atomic mag. moment =     3.064537
atom   21   Tr[ns(na)] (up, down, total) =   4.89356  1.82900  6.72255
   spin  1
    eigenvalues: 
  0.974  0.978  0.979  0.981  0.981
    eigenvectors:
  0.002  0.711  0.147  0.019  0.121
  0.005  0.034  0.081  0.108  0.772
  0.708  0.035  0.004  0.244  0.010
  0.281  0.092  0.037  0.496  0.094
  0.004  0.129  0.731  0.133  0.004
    occupations:
  0.979  0.001  0.000 -0.001  0.000
  0.001  0.981 -0.000 -0.000  0.000
  0.000 -0.000  0.976 -0.003 -0.001
 -0.001 -0.000 -0.003  0.979  0.000
  0.000  0.000 -0.001  0.000  0.979
   spin  2
    eigenvalues: 
  0.092  0.095  0.339  0.346  0.958
    eigenvectors:
  0.070  0.120  0.509  0.298  0.003
  0.113  0.687  0.056  0.139  0.005
  0.170  0.037  0.025  0.043  0.725
  0.543  0.072  0.094  0.027  0.264
  0.105  0.085  0.316  0.492  0.003
    occupations:
  0.296  0.096  0.037 -0.009  0.001
  0.096  0.148  0.042  0.030  0.036
  0.037  0.042  0.737  0.358 -0.019
 -0.009  0.030  0.358  0.351  0.096
  0.001  0.036 -0.019  0.096  0.298
atomic mag. moment =     3.064562
atom   22   Tr[ns(na)] (up, down, total) =   4.89350  1.83016  6.72366
   spin  1
    eigenvalues: 
  0.974  0.978  0.979  0.981  0.981
    eigenvectors:
  0.004  0.199  0.660  0.129  0.008
  0.001  0.003  0.132  0.706  0.157
  0.652  0.062  0.004  0.037  0.245
  0.343  0.086  0.000  0.122  0.449
  0.000  0.650  0.203  0.005  0.142
    occupations:
  0.979  0.001  0.000 -0.001  0.000
  0.001  0.981 -0.000 -0.000  0.001
  0.000 -0.000  0.976 -0.003 -0.001
 -0.001 -0.000 -0.003  0.979  0.001
  0.000  0.001 -0.001  0.001  0.979
   spin  2
    eigenvalues: 
  0.093  0.095  0.337  0.347  0.957
    eigenvectors:
  0.180  0.006  0.664  0.146  0.003
  0.791  0.000  0.088  0.120  0.001
  0.001  0.287  0.015  0.050  0.647
  0.002  0.527  0.062  0.059  0.349
  0.026  0.179  0.171  0.625  0.000
    occupations:
  0.295  0.094  0.040  0.002 -0.005
  0.094  0.146  0.011  0.019  0.040
  0.040  0.011  0.669  0.389 -0.052
  0.002  0.019  0.389  0.426  0.077
 -0.005  0.040 -0.052  0.077  0.294
atomic mag. moment =     3.063340
atom   23   Tr[ns(na)] (up, down, total) =   4.89351  1.82907  6.72258
   spin  1
    eigenvalues: 
  0.974  0.978  0.979  0.981  0.981
    eigenvectors:
  0.001  0.696  0.167  0.024  0.112
  0.006  0.029  0.086  0.071  0.809
  0.705  0.033  0.003  0.254  0.004
  0.283  0.094  0.033  0.523  0.067
  0.004  0.149  0.711  0.128  0.008
    occupations:
  0.979  0.001  0.000 -0.001  0.000
  0.001  0.981 -0.001 -0.000  0.000
  0.000 -0.001  0.976 -0.003 -0.001
 -0.001 -0.000 -0.003  0.979  0.000
  0.000  0.000 -0.001  0.000  0.979
   spin  2
    eigenvalues: 
  0.092  0.095  0.338  0.347  0.958
    eigenvectors:
  0.069  0.121  0.505  0.303  0.002
  0.109  0.690  0.055  0.140  0.006
  0.169  0.039  0.026  0.043  0.723
  0.546  0.067  0.094  0.027  0.266
  0.106  0.084  0.320  0.487  0.003
    occupations:
  0.296  0.096  0.034 -0.010  0.001
  0.096  0.148  0.047  0.034  0.037
  0.034  0.047  0.735  0.358 -0.020
 -0.010  0.034  0.358  0.352  0.095
  0.001  0.037 -0.020  0.095  0.297
atomic mag. moment =     3.064434
atom   24   Tr[ns(na)] (up, down, total) =   4.89422  1.82485  6.71906
   spin  1
    eigenvalues: 
  0.974  0.979  0.979  0.981  0.981
    eigenvectors:
  0.001  0.604  0.196  0.105  0.094
  0.007  0.050  0.120  0.024  0.799
  0.667  0.047  0.007  0.246  0.033
  0.323  0.113  0.027  0.528  0.009
  0.002  0.186  0.651  0.096  0.064
    occupations:
  0.979  0.001  0.000 -0.001  0.000
  0.001  0.981 -0.001 -0.000  0.000
  0.000 -0.001  0.976 -0.003 -0.001
 -0.001 -0.000 -0.003  0.978  0.000
  0.000  0.000 -0.001  0.000  0.979
   spin  2
    eigenvalues: 
  0.092  0.093  0.334  0.349  0.957
    eigenvectors:
  0.075  0.109  0.730  0.084  0.002
  0.172  0.624  0.113  0.085  0.005
  0.196  0.065  0.008  0.062  0.668
  0.467  0.091  0.048  0.070  0.324
  0.089  0.111  0.101  0.699  0.001
    occupations:
  0.292  0.094  0.029 -0.006 -0.003
  0.094  0.146  0.041  0.038  0.038
  0.029  0.041  0.688  0.381 -0.043
 -0.006  0.038  0.381  0.402  0.086
 -0.003  0.038 -0.043  0.086  0.296
atomic mag. moment =     3.069371
atom   25   Tr[ns(na)] (up, down, total) =   1.82821  4.89197  6.72018
   spin  1
    eigenvalues: 
  0.093  0.093  0.335  0.350  0.958
    eigenvectors:
  0.000  0.808  0.060  0.108  0.024
  0.029  0.164  0.189  0.618  0.001
  0.048  0.007  0.254  0.047  0.643
  0.133  0.021  0.408  0.108  0.330
  0.789  0.000  0.089  0.120  0.002
    occupations:
  0.156  0.088  0.096  0.087 -0.006
  0.088  0.298 -0.029 -0.013 -0.040
  0.096 -0.029  0.723  0.302 -0.028
  0.087 -0.013  0.302  0.505  0.095
 -0.006 -0.040 -0.028  0.095  0.146
   spin  2
    eigenvalues: 
  0.974  0.978  0.979  0.981  0.981
    eigenvectors:
  0.021  0.126  0.247  0.320  0.286
  0.002  0.298  0.455  0.204  0.041
  0.651  0.141  0.132  0.012  0.064
  0.323  0.269  0.098  0.095  0.215
  0.002  0.165  0.069  0.369  0.395
    occupations:
  0.980  0.000  0.000 -0.002 -0.000
  0.000  0.979  0.000 -0.000  0.001
  0.000  0.000  0.976 -0.002 -0.001
 -0.002 -0.000 -0.002  0.978  0.000
 -0.000  0.001 -0.001  0.000  0.980
atomic mag. moment =    -3.063756
atom   26   Tr[ns(na)] (up, down, total) =   1.82801  4.89204  6.72005
   spin  1
    eigenvalues: 
  0.093  0.093  0.333  0.351  0.958
    eigenvectors:
  0.098  0.707  0.066  0.100  0.029
  0.096  0.096  0.217  0.591  0.001
  0.052  0.000  0.244  0.055  0.650
  0.086  0.079  0.393  0.125  0.318
  0.668  0.118  0.081  0.130  0.003
    occupations:
  0.159  0.087  0.107  0.093 -0.004
  0.087  0.298 -0.030 -0.015 -0.041
  0.107 -0.030  0.727  0.297 -0.018
  0.093 -0.015  0.297  0.494  0.102
 -0.004 -0.041 -0.018  0.102  0.148
   spin  2
    eigenvalues: 
  0.974  0.978  0.979  0.981  0.981
    eigenvectors:
  0.025  0.143  0.242  0.301  0.289
  0.003  0.272  0.484  0.208  0.033
  0.662  0.145  0.121  0.009  0.063
  0.308  0.290  0.077  0.100  0.224
  0.003  0.149  0.075  0.381  0.392
    occupations:
  0.980  0.000 -0.000 -0.002 -0.000
  0.000  0.979  0.000 -0.000  0.001
 -0.000  0.000  0.975 -0.002 -0.001
 -0.002 -0.000 -0.002  0.978  0.000
 -0.000  0.001 -0.001  0.000  0.980
atomic mag. moment =    -3.064030
atom   27   Tr[ns(na)] (up, down, total) =   1.82724  4.89287  6.72011
   spin  1
    eigenvalues: 
  0.092  0.093  0.339  0.345  0.958
    eigenvectors:
  0.199  0.615  0.054  0.123  0.010
  0.003  0.197  0.153  0.647  0.001
  0.047  0.025  0.272  0.041  0.615
  0.110  0.002  0.427  0.087  0.375
  0.642  0.161  0.095  0.103  0.000
    occupations:
  0.145  0.092  0.055  0.063 -0.012
  0.092  0.294 -0.024 -0.009 -0.035
  0.055 -0.024  0.702  0.316 -0.067
  0.063 -0.009  0.316  0.544  0.065
 -0.012 -0.035 -0.067  0.065  0.142
   spin  2
    eigenvalues: 
  0.974  0.978  0.979  0.981  0.981
    eigenvectors:
  0.010  0.266  0.075  0.060  0.588
  0.000  0.002  0.603  0.381  0.013
  0.624  0.307  0.002  0.000  0.068
  0.366  0.397  0.009  0.001  0.227
  0.001  0.028  0.310  0.557  0.104
    occupations:
  0.980  0.001  0.000 -0.001 -0.000
  0.001  0.980  0.000 -0.000  0.001
  0.000  0.000  0.976 -0.003 -0.000
 -0.001 -0.000 -0.003  0.977  0.001
 -0.000  0.001 -0.000  0.001  0.980
atomic mag. moment =    -3.065632
atom   28   Tr[ns(na)] (up, down, total) =   1.82999  4.89070  6.72068
   spin  1
    eigenvalues: 
  0.093  0.093  0.336  0.350  0.958
    eigenvectors:
  0.313  0.499  0.016  0.171  0.001
  0.016  0.191  0.144  0.649  0.000
  0.079  0.034  0.257  0.076  0.555
  0.057  0.007  0.398  0.104  0.434
  0.534  0.269  0.186  0.001  0.010
    occupations:
  0.142  0.097  0.005  0.032 -0.012
  0.097  0.295 -0.023 -0.003 -0.031
  0.005 -0.023  0.654  0.324 -0.119
  0.032 -0.003  0.324  0.592  0.013
 -0.012 -0.031 -0.119  0.013  0.147
   spin  2
    eigenvalues: 
  0.974  0.976  0.979  0.981  0.981
    eigenvectors:
  0.002  0.120  0.003  0.324  0.549
  0.001  0.164  0.343  0.228  0.263
  0.535  0.274  0.157  0.006  0.028
  0.455  0.314  0.153  0.050  0.027
  0.006  0.128  0.343  0.391  0.133
    occupations:
  0.980  0.001  0.001 -0.001 -0.000
  0.001  0.979 -0.000  0.001  0.001
  0.001 -0.000  0.976 -0.002  0.001
 -0.001  0.001 -0.002  0.976 -0.000
 -0.000  0.001  0.001 -0.000  0.979
atomic mag. moment =    -3.060714
atom   29   Tr[ns(na)] (up, down, total) =   1.83001  4.89073  6.72074
   spin  1
    eigenvalues: 
  0.093  0.093  0.338  0.348  0.958
    eigenvectors:
  0.256  0.560  0.026  0.157  0.000
  0.009  0.194  0.212  0.585  0.000
  0.078  0.019  0.225  0.107  0.572
  0.068  0.008  0.356  0.144  0.424
  0.588  0.220  0.181  0.007  0.004
    occupations:
  0.140  0.096 -0.002  0.025 -0.010
  0.096  0.294 -0.011  0.006 -0.032
 -0.002 -0.011  0.670  0.325 -0.099
  0.025  0.006  0.325  0.583  0.034
 -0.010 -0.032 -0.099  0.034  0.143
   spin  2
    eigenvalues: 
  0.974  0.977  0.979  0.981  0.981
    eigenvectors:
  0.001  0.126  0.005  0.364  0.504
  0.000  0.162  0.358  0.203  0.276
  0.562  0.261  0.139  0.014  0.024
  0.435  0.336  0.151  0.050  0.029
  0.003  0.115  0.347  0.370  0.166
    occupations:
  0.980  0.001  0.001 -0.001 -0.000
  0.001  0.979 -0.000  0.000  0.001
  0.001 -0.000  0.976 -0.002  0.001
 -0.001  0.000 -0.002  0.976 -0.000
 -0.000  0.001  0.001 -0.000  0.979
atomic mag. moment =    -3.060722
atom   30   Tr[ns(na)] (up, down, total) =   1.82718  4.89286  6.72004
   spin  1
    eigenvalues: 
  0.092  0.093  0.339  0.345  0.958
    eigenvectors:
  0.289  0.523  0.028  0.149  0.011
  0.011  0.189  0.060  0.739  0.001
  0.040  0.037  0.301  0.012  0.610
  0.101  0.007  0.483  0.031  0.378
  0.559  0.243  0.128  0.069  0.001
    occupations:
  0.147  0.091  0.058  0.066 -0.013
  0.091  0.295 -0.029 -0.011 -0.035
  0.058 -0.029  0.697  0.317 -0.073
  0.066 -0.011  0.317  0.547  0.059
 -0.013 -0.035 -0.073  0.059  0.142
   spin  2
    eigenvalues: 
  0.974  0.978  0.979  0.981  0.981
    eigenvectors:
  0.011  0.282  0.049  0.060  0.597
  0.000  0.015  0.587  0.386  0.012
  0.615  0.312  0.009  0.000  0.064
  0.372  0.379  0.024  0.001  0.224
  0.001  0.012  0.331  0.553  0.103
    occupations:
  0.980  0.001  0.000 -0.001 -0.000
  0.001  0.980  0.000  0.000  0.001
  0.000  0.000  0.976 -0.003 -0.000
 -0.001  0.000 -0.003  0.977  0.001
 -0.000  0.001 -0.000  0.001  0.980
atomic mag. moment =    -3.065684
atom   31   Tr[ns(na)] (up, down, total) =   1.82614  4.89337  6.71951
   spin  1
    eigenvalues: 
  0.093  0.095  0.330  0.348  0.960
    eigenvectors:
  0.206  0.156  0.350  0.001  0.287
  0.163  0.213  0.472  0.151  0.003
  0.417  0.167  0.053  0.360  0.002
  0.209  0.102  0.102  0.292  0.295
  0.005  0.363  0.023  0.195  0.414
    occupations:
  0.425  0.069 -0.015 -0.202  0.281
  0.069  0.246  0.020  0.023 -0.096
 -0.015  0.020  0.200 -0.123 -0.031
 -0.202  0.023 -0.123  0.447 -0.252
  0.281 -0.096 -0.031 -0.252  0.507
   spin  2
    eigenvalues: 
  0.974  0.978  0.980  0.980  0.981
    eigenvectors:
  0.208  0.007  0.033  0.169  0.583
  0.026  0.739  0.163  0.035  0.037
  0.017  0.129  0.093  0.694  0.067
  0.426  0.125  0.363  0.083  0.003
  0.323  0.000  0.348  0.019  0.309
    occupations:
  0.980  0.001 -0.000  0.002 -0.002
  0.001  0.978  0.001 -0.000  0.000
 -0.000  0.001  0.980  0.000 -0.001
  0.002 -0.000  0.000  0.977  0.002
 -0.002  0.000 -0.001  0.002  0.978
atomic mag. moment =    -3.067221
atom   32   Tr[ns(na)] (up, down, total) =   3.50346  4.52056  8.02402
   spin  1
    eigenvalues: 
  0.302  0.325  0.957  0.959  0.960
    eigenvectors:
  0.133  0.105  0.001  0.656  0.105
  0.667  0.043  0.003  0.262  0.026
  0.008  0.303  0.592  0.010  0.087
  0.023  0.441  0.403  0.000  0.133
  0.169  0.109  0.000  0.073  0.650
    occupations:
  0.806 -0.238  0.092 -0.100  0.031
 -0.238  0.494  0.024 -0.005  0.177
  0.092  0.024  0.760  0.239  0.140
 -0.100 -0.005  0.239  0.664 -0.180
  0.031  0.177  0.140 -0.180  0.780
   spin  2
    eigenvalues: 
  0.749  0.882  0.963  0.963  0.964
    eigenvectors:
  0.116  0.166  0.648  0.065  0.005
  0.067  0.621  0.281  0.011  0.020
  0.259  0.011  0.009  0.451  0.270
  0.382  0.038  0.039  0.009  0.532
  0.176  0.164  0.023  0.465  0.173
    occupations:
  0.925 -0.045  0.034 -0.039 -0.017
 -0.045  0.898  0.021 -0.022  0.003
  0.034  0.021  0.907  0.069  0.049
 -0.039 -0.022  0.069  0.879 -0.062
 -0.017  0.003  0.049 -0.062  0.912
atomic mag. moment =    -1.017094
N of occupied +U levels =  108.840803
 --- exit write_ns ---
 Atomic wfc used for LDA+U Projector are NOT orthogonalized
     Starting wfcs from file
     Calculation restarted from scf iteration #   191

     total cpu time spent up to now is       36.7 secs

     Self-consistent Calculation

     iteration #191     ecut=   350.00 Ry     beta= 0.10
     Calculation restarted from kpoint #     9
     Davidson diagonalization with overlap
     c_bands:  1 eigenvalues not converged
     c_bands:  1 eigenvalues not converged
     c_bands:  2 eigenvalues not converged
     c_bands:  2 eigenvalues not converged
     c_bands:  5 eigenvalues not converged
     c_bands:  2 eigenvalues not converged
     ethr =  3.65E-09,  avg # of iterations =  9.8

     total cpu time spent up to now is     2912.8 secs

     total energy              =   -7251.43751552 Ry
     Harris-Foulkes estimate   =   -7251.43751101 Ry
     estimated scf accuracy    <       0.00002777 Ry

     total magnetization       =     3.00 Bohr mag/cell
     absolute magnetization    =    51.73 Bohr mag/cell

     iteration #192     ecut=   350.00 Ry     beta= 0.10
     Davidson diagonalization with overlap
     ethr =  3.65E-09,  avg # of iterations =  2.0

     total cpu time spent up to now is     3754.4 secs

     total energy              =   -7251.43751399 Ry
     Harris-Foulkes estimate   =   -7251.43751899 Ry
     estimated scf accuracy    <       0.00002860 Ry

     total magnetization       =     3.00 Bohr mag/cell
     absolute magnetization    =    51.73 Bohr mag/cell

     iteration #193     ecut=   350.00 Ry     beta= 0.10
     Davidson diagonalization with overlap
     ethr =  3.65E-09,  avg # of iterations =  2.9

     total cpu time spent up to now is     4723.3 secs

     total energy              =   -7251.43659714 Ry
     Harris-Foulkes estimate   =   -7251.43759172 Ry
     estimated scf accuracy    <       0.00002970 Ry

     total magnetization       =     3.00 Bohr mag/cell
     absolute magnetization    =    51.74 Bohr mag/cell

     iteration #194     ecut=   350.00 Ry     beta= 0.10
     Davidson diagonalization with overlap
     ethr =  3.65E-09,  avg # of iterations =  4.1

     total cpu time spent up to now is     5914.8 secs

     total energy              =   -7251.43735558 Ry
     Harris-Foulkes estimate   =   -7251.43736096 Ry
     estimated scf accuracy    <       0.00003015 Ry

     total magnetization       =     3.00 Bohr mag/cell
     absolute magnetization    =    51.73 Bohr mag/cell

     iteration #195     ecut=   350.00 Ry     beta= 0.10
     Davidson diagonalization with overlap
     ethr =  3.65E-09,  avg # of iterations =  3.0

     total cpu time spent up to now is     6879.3 secs

     total energy              =   -7251.43732765 Ry
     Harris-Foulkes estimate   =   -7251.43743359 Ry
     estimated scf accuracy    <       0.00002744 Ry

     total magnetization       =     3.00 Bohr mag/cell
     absolute magnetization    =    51.73 Bohr mag/cell

     iteration #196     ecut=   350.00 Ry     beta= 0.10
     Davidson diagonalization with overlap
     ethr =  3.65E-09,  avg # of iterations =  2.5

     total cpu time spent up to now is     7763.9 secs

     total energy              =   -7251.43700257 Ry
     Harris-Foulkes estimate   =   -7251.43737522 Ry
     estimated scf accuracy    <       0.00002787 Ry

     total magnetization       =     3.00 Bohr mag/cell
     absolute magnetization    =    51.73 Bohr mag/cell

     iteration #197     ecut=   350.00 Ry     beta= 0.10
     Davidson diagonalization with overlap
     ethr =  3.65E-09,  avg # of iterations =  4.0

     total cpu time spent up to now is     8991.5 secs

     total energy              =   -7251.43628382 Ry
     Harris-Foulkes estimate   =   -7251.43727409 Ry
     estimated scf accuracy    <       0.00003810 Ry

     total magnetization       =     3.00 Bohr mag/cell
     absolute magnetization    =    51.73 Bohr mag/cell

     iteration #198     ecut=   350.00 Ry     beta= 0.10
     Davidson diagonalization with overlap
     ethr =  3.65E-09,  avg # of iterations =  4.1

     total cpu time spent up to now is    10360.3 secs

     total energy              =   -7251.43754935 Ry
     Harris-Foulkes estimate   =   -7251.43756196 Ry
     estimated scf accuracy    <       0.00002708 Ry

     total magnetization       =     3.00 Bohr mag/cell
     absolute magnetization    =    51.74 Bohr mag/cell

     iteration #199     ecut=   350.00 Ry     beta= 0.10
     Davidson diagonalization with overlap
     ethr =  3.65E-09,  avg # of iterations =  1.1

     total cpu time spent up to now is    11158.0 secs

     total energy              =   -7251.43750419 Ry
     Harris-Foulkes estimate   =   -7251.43755163 Ry
     estimated scf accuracy    <       0.00002695 Ry

     total magnetization       =     3.00 Bohr mag/cell
     absolute magnetization    =    51.74 Bohr mag/cell

     iteration #200     ecut=   350.00 Ry     beta= 0.10
     Davidson diagonalization with overlap
     ethr =  3.65E-09,  avg # of iterations =  2.0
 
     Magnetic moment per site:
     atom:    1    charge:    6.3267    magn:   -0.0003    constr:    0.0000
     atom:    2    charge:    6.3267    magn:    0.0001    constr:    0.0000
     atom:    3    charge:    6.3267    magn:   -0.0001    constr:    0.0000
     atom:    4    charge:    6.3265    magn:    0.0003    constr:    0.0000
     atom:    5    charge:    6.3269    magn:    0.0001    constr:    0.0000
     atom:    6    charge:    6.3266    magn:    0.0002    constr:    0.0000
     atom:    7    charge:    6.3273    magn:    0.0012    constr:    0.0000
     atom:    8    charge:    6.3266    magn:    0.0001    constr:    0.0000
     atom:    9    charge:    6.3268    magn:    0.0002    constr:    0.0000
     atom:   10    charge:    6.3265    magn:    0.0002    constr:    0.0000
     atom:   11    charge:    6.3266    magn:    0.0004    constr:    0.0000
     atom:   12    charge:    6.3268    magn:   -0.0001    constr:    0.0000
     atom:   13    charge:    6.3271    magn:    0.0012    constr:    0.0000
     atom:   14    charge:    6.3267    magn:   -0.0003    constr:    0.0000
     atom:   15    charge:    6.3268    magn:    0.0001    constr:    0.0000
     atom:   16    charge:    6.3266    magn:    0.0001    constr:    0.0000
     atom:   17    charge:   14.1536    magn:    2.9904    constr:    0.0000
     atom:   18    charge:   14.1508    magn:    2.9961    constr:    0.0000
     atom:   19    charge:   14.1530    magn:    2.9916    constr:    0.0000
     atom:   20    charge:   14.1531    magn:    2.9916    constr:    0.0000
     atom:   21    charge:   14.1530    magn:    2.9914    constr:    0.0000
     atom:   22    charge:   14.1535    magn:    2.9906    constr:    0.0000
     atom:   23    charge:   14.1530    magn:    2.9913    constr:    0.0000
     atom:   24    charge:   14.1510    magn:    2.9959    constr:    0.0000
     atom:   25    charge:   14.1510    magn:   -2.9896    constr:    0.0000
     atom:   26    charge:   14.1510    magn:   -2.9900    constr:    0.0000
     atom:   27    charge:   14.1511    magn:   -2.9916    constr:    0.0000
     atom:   28    charge:   14.1509    magn:   -2.9866    constr:    0.0000
     atom:   29    charge:   14.1510    magn:   -2.9867    constr:    0.0000
     atom:   30    charge:   14.1511    magn:   -2.9916    constr:    0.0000
     atom:   31    charge:   14.1514    magn:   -2.9930    constr:    0.0000
     atom:   32    charge:   15.4191    magn:   -0.9969    constr:    0.0000
     atom:   33    charge:    5.4609    magn:   -0.0021    constr:    0.0000
     atom:   34    charge:    5.4614    magn:   -0.0042    constr:    0.0000
     atom:   35    charge:    5.4604    magn:    0.0094    constr:    0.0000
     atom:   36    charge:    5.4607    magn:    0.0101    constr:    0.0000
     atom:   37    charge:    5.4602    magn:    0.0021    constr:    0.0000
     atom:   38    charge:    5.4605    magn:    0.0051    constr:    0.0000
     atom:   39    charge:    5.4390    magn:    0.0945    constr:    0.0000
     atom:   40    charge:    5.4617    magn:    0.0022    constr:    0.0000
     atom:   41    charge:    5.4604    magn:    0.0058    constr:    0.0000
     atom:   42    charge:    5.4617    magn:    0.0025    constr:    0.0000
     atom:   43    charge:    5.4608    magn:    0.0094    constr:    0.0000
     atom:   44    charge:    5.4604    magn:    0.0116    constr:    0.0000
     atom:   45    charge:    5.4389    magn:    0.0945    constr:    0.0000
     atom:   46    charge:    5.4610    magn:   -0.0014    constr:    0.0000
     atom:   47    charge:    5.4602    magn:    0.0013    constr:    0.0000
     atom:   48    charge:    5.4613    magn:   -0.0066    constr:    0.0000
     atom:   49    charge:    5.4586    magn:    0.0156    constr:    0.0000
     atom:   50    charge:    5.4614    magn:    0.0107    constr:    0.0000
     atom:   51    charge:    5.4609    magn:    0.0011    constr:    0.0000
     atom:   52    charge:    5.4608    magn:    0.0080    constr:    0.0000
     atom:   53    charge:    5.4601    magn:    0.0098    constr:    0.0000
     atom:   54    charge:    5.4334    magn:    0.1235    constr:    0.0000
     atom:   55    charge:    5.4610    magn:    0.0091    constr:    0.0000
     atom:   56    charge:    5.4615    magn:    0.0071    constr:    0.0000
     atom:   57    charge:    5.4334    magn:    0.1241    constr:    0.0000
     atom:   58    charge:    5.4615    magn:    0.0080    constr:    0.0000
     atom:   59    charge:    5.4607    magn:    0.0086    constr:    0.0000
     atom:   60    charge:    5.4609    magn:   -0.0006    constr:    0.0000
     atom:   61    charge:    5.4610    magn:    0.0084    constr:    0.0000
     atom:   62    charge:    5.4586    magn:    0.0161    constr:    0.0000
     atom:   63    charge:    5.4601    magn:    0.0092    constr:    0.0000
     atom:   64    charge:    5.4615    magn:    0.0110    constr:    0.0000
     atom:   65    charge:    5.4598    magn:    0.0063    constr:    0.0000
     atom:   66    charge:    5.4617    magn:    0.0003    constr:    0.0000
     atom:   67    charge:    5.4604    magn:    0.0023    constr:    0.0000
     atom:   68    charge:    5.4411    magn:    0.0849    constr:    0.0000
     atom:   69    charge:    5.4613    magn:    0.0011    constr:    0.0000
     atom:   70    charge:    5.4606    magn:    0.0002    constr:    0.0000
     atom:   71    charge:    5.4608    magn:   -0.0009    constr:    0.0000
     atom:   72    charge:    5.4616    magn:    0.0044    constr:    0.0000
     atom:   73    charge:    5.4606    magn:   -0.0026    constr:    0.0000
     atom:   74    charge:    5.4617    magn:    0.0046    constr:    0.0000
     atom:   75    charge:    5.4411    magn:    0.0850    constr:    0.0000
     atom:   76    charge:    5.4603    magn:    0.0012    constr:    0.0000
     atom:   77    charge:    5.4608    magn:    0.0003    constr:    0.0000
     atom:   78    charge:    5.4597    magn:    0.0082    constr:    0.0000
     atom:   79    charge:    5.4613    magn:    0.0005    constr:    0.0000
     atom:   80    charge:    5.4616    magn:    0.0015    constr:    0.0000

     total cpu time spent up to now is    11989.6 secs

     total energy              =   -7251.43680140 Ry
     Harris-Foulkes estimate   =   -7251.43751922 Ry
     estimated scf accuracy    <       0.00002725 Ry

     total magnetization       =     3.00 Bohr mag/cell
     absolute magnetization    =    51.74 Bohr mag/cell

     iteration #201     ecut=   350.00 Ry     beta= 0.10
     Davidson diagonalization with overlap
     ethr =  3.65E-09,  avg # of iterations =  4.0

     total cpu time spent up to now is    13183.5 secs

     total energy              =   -7251.43679740 Ry
     Harris-Foulkes estimate   =   -7251.43733173 Ry
     estimated scf accuracy    <       0.00002907 Ry

     total magnetization       =     3.00 Bohr mag/cell
     absolute magnetization    =    51.73 Bohr mag/cell

     iteration #202     ecut=   350.00 Ry     beta= 0.10
     Davidson diagonalization with overlap
     ethr =  3.65E-09,  avg # of iterations =  4.0

     total cpu time spent up to now is    14437.8 secs

     total energy              =   -7251.43669981 Ry
     Harris-Foulkes estimate   =   -7251.43755378 Ry
     estimated scf accuracy    <       0.00002767 Ry

     total magnetization       =     3.00 Bohr mag/cell
     absolute magnetization    =    51.73 Bohr mag/cell

     iteration #203     ecut=   350.00 Ry     beta= 0.10
     Davidson diagonalization with overlap
     ethr =  3.65E-09,  avg # of iterations =  4.0

     total cpu time spent up to now is    15643.8 secs

     total energy              =   -7251.43713763 Ry
     Harris-Foulkes estimate   =   -7251.43734819 Ry
     estimated scf accuracy    <       0.00002865 Ry

     total magnetization       =     3.00 Bohr mag/cell
     absolute magnetization    =    51.73 Bohr mag/cell

     iteration #204     ecut=   350.00 Ry     beta= 0.10
     Davidson diagonalization with overlap
     ethr =  3.65E-09,  avg # of iterations =  4.0

     total cpu time spent up to now is    16769.2 secs

     total energy              =   -7251.43745755 Ry
     Harris-Foulkes estimate   =   -7251.43750431 Ry
     estimated scf accuracy    <       0.00002671 Ry

     total magnetization       =     3.00 Bohr mag/cell
     absolute magnetization    =    51.73 Bohr mag/cell

     iteration #205     ecut=   350.00 Ry     beta= 0.10
     Davidson diagonalization with overlap
     ethr =  3.62E-09,  avg # of iterations =  2.0

     total cpu time spent up to now is    17602.5 secs

     total energy              =   -7251.43748281 Ry
     Harris-Foulkes estimate   =   -7251.43747234 Ry
     estimated scf accuracy    <       0.00002683 Ry

     total magnetization       =     3.00 Bohr mag/cell
     absolute magnetization    =    51.73 Bohr mag/cell

     iteration #206     ecut=   350.00 Ry     beta= 0.10
     Davidson diagonalization with overlap
     ethr =  3.62E-09,  avg # of iterations =  2.0

     total cpu time spent up to now is    18416.0 secs

     total energy              =   -7251.43746631 Ry
     Harris-Foulkes estimate   =   -7251.43748708 Ry
     estimated scf accuracy    <       0.00002657 Ry

     total magnetization       =     3.00 Bohr mag/cell
     absolute magnetization    =    51.73 Bohr mag/cell

     iteration #207     ecut=   350.00 Ry     beta= 0.10
     Davidson diagonalization with overlap
     ethr =  3.61E-09,  avg # of iterations =  2.0

     total cpu time spent up to now is    19263.1 secs

     total energy              =   -7251.43740875 Ry
     Harris-Foulkes estimate   =   -7251.43747804 Ry
     estimated scf accuracy    <       0.00002735 Ry

     total magnetization       =     3.00 Bohr mag/cell
     absolute magnetization    =    51.73 Bohr mag/cell

     iteration #208     ecut=   350.00 Ry     beta= 0.10
     Davidson diagonalization with overlap
     ethr =  3.61E-09,  avg # of iterations =  2.1

     total cpu time spent up to now is    20117.3 secs

     total energy              =   -7251.43744986 Ry
     Harris-Foulkes estimate   =   -7251.43743578 Ry
     estimated scf accuracy    <       0.00002759 Ry

     total magnetization       =     3.00 Bohr mag/cell
     absolute magnetization    =    51.73 Bohr mag/cell

     iteration #209     ecut=   350.00 Ry     beta= 0.10
     Davidson diagonalization with overlap
     ethr =  3.61E-09,  avg # of iterations =  2.4

     total cpu time spent up to now is    20987.2 secs

     total energy              =   -7251.43699301 Ry
     Harris-Foulkes estimate   =   -7251.43748713 Ry
     estimated scf accuracy    <       0.00002706 Ry

     total magnetization       =     3.00 Bohr mag/cell
     absolute magnetization    =    51.73 Bohr mag/cell

     iteration #210     ecut=   350.00 Ry     beta= 0.10
     Davidson diagonalization with overlap
     ethr =  3.61E-09,  avg # of iterations =  4.0

     total cpu time spent up to now is    22189.2 secs

     total energy              =   -7251.43769314 Ry
     Harris-Foulkes estimate   =   -7251.43770660 Ry
     estimated scf accuracy    <       0.00002925 Ry

     total magnetization       =     3.00 Bohr mag/cell
     absolute magnetization    =    51.74 Bohr mag/cell

     iteration #211     ecut=   350.00 Ry     beta= 0.10
     Davidson diagonalization with overlap
     ethr =  3.61E-09,  avg # of iterations =  2.0

     total cpu time spent up to now is    23005.1 secs

     total energy              =   -7251.43743407 Ry
     Harris-Foulkes estimate   =   -7251.43769762 Ry
     estimated scf accuracy    <       0.00003011 Ry

     total magnetization       =     3.00 Bohr mag/cell
     absolute magnetization    =    51.73 Bohr mag/cell

     iteration #212     ecut=   350.00 Ry     beta= 0.10
     Davidson diagonalization with overlap
     ethr =  3.61E-09,  avg # of iterations =  3.0

     total cpu time spent up to now is    24059.6 secs

     total energy              =   -7251.43759495 Ry
     Harris-Foulkes estimate   =   -7251.43759968 Ry
     estimated scf accuracy    <       0.00003131 Ry

     total magnetization       =     3.00 Bohr mag/cell
     absolute magnetization    =    51.74 Bohr mag/cell

     iteration #213     ecut=   350.00 Ry     beta= 0.10
     Davidson diagonalization with overlap
     ethr =  3.61E-09,  avg # of iterations =  2.9

     total cpu time spent up to now is    25020.1 secs

     total energy              =   -7251.43765973 Ry
     Harris-Foulkes estimate   =   -7251.43765224 Ry
     estimated scf accuracy    <       0.00003191 Ry

     total magnetization       =     3.00 Bohr mag/cell
     absolute magnetization    =    51.74 Bohr mag/cell

     iteration #214     ecut=   350.00 Ry     beta= 0.10
     Davidson diagonalization with overlap
     ethr =  3.61E-09,  avg # of iterations =  2.5

     total cpu time spent up to now is    25913.9 secs

     total energy              =   -7251.43737861 Ry
     Harris-Foulkes estimate   =   -7251.43769251 Ry
     estimated scf accuracy    <       0.00002794 Ry

     total magnetization       =     3.00 Bohr mag/cell
     absolute magnetization    =    51.74 Bohr mag/cell

     iteration #215     ecut=   350.00 Ry     beta= 0.10
     Davidson diagonalization with overlap
     ethr =  3.61E-09,  avg # of iterations =  3.2

     total cpu time spent up to now is    26978.6 secs

     total energy              =   -7251.43758418 Ry
     Harris-Foulkes estimate   =   -7251.43757590 Ry
     estimated scf accuracy    <       0.00002989 Ry

     total magnetization       =     3.00 Bohr mag/cell
     absolute magnetization    =    51.74 Bohr mag/cell

     iteration #216     ecut=   350.00 Ry     beta= 0.10
     Davidson diagonalization with overlap
     ethr =  3.61E-09,  avg # of iterations =  2.0

     total cpu time spent up to now is    27826.2 secs

     total energy              =   -7251.43759325 Ry
     Harris-Foulkes estimate   =   -7251.43759496 Ry
     estimated scf accuracy    <       0.00003106 Ry

     total magnetization       =     3.00 Bohr mag/cell
     absolute magnetization    =    51.74 Bohr mag/cell

     iteration #217     ecut=   350.00 Ry     beta= 0.10
     Davidson diagonalization with overlap
     ethr =  3.61E-09,  avg # of iterations =  3.1

     total cpu time spent up to now is    28778.2 secs

     total energy              =   -7251.43697484 Ry
     Harris-Foulkes estimate   =   -7251.43765966 Ry
     estimated scf accuracy    <       0.00003085 Ry

     total magnetization       =     3.00 Bohr mag/cell
     absolute magnetization    =    51.74 Bohr mag/cell

     iteration #218     ecut=   350.00 Ry     beta= 0.10
     Davidson diagonalization with overlap
     ethr =  3.61E-09,  avg # of iterations =  4.0

     total cpu time spent up to now is    29933.7 secs

     total energy              =   -7251.43749027 Ry
     Harris-Foulkes estimate   =   -7251.43747409 Ry
     estimated scf accuracy    <       0.00002665 Ry

     total magnetization       =     3.00 Bohr mag/cell
     absolute magnetization    =    51.73 Bohr mag/cell

     iteration #219     ecut=   350.00 Ry     beta= 0.10
     Davidson diagonalization with overlap
     ethr =  3.61E-09,  avg # of iterations =  2.0

     total cpu time spent up to now is    30766.8 secs

     total energy              =   -7251.43749880 Ry
     Harris-Foulkes estimate   =   -7251.43750732 Ry
     estimated scf accuracy    <       0.00002641 Ry

     total magnetization       =     3.00 Bohr mag/cell
     absolute magnetization    =    51.73 Bohr mag/cell

     iteration #220     ecut=   350.00 Ry     beta= 0.10
     Davidson diagonalization with overlap
     ethr =  3.58E-09,  avg # of iterations =  3.4

     total cpu time spent up to now is    31770.2 secs

     total energy              =   -7251.43755695 Ry
     Harris-Foulkes estimate   =   -7251.43757300 Ry
     estimated scf accuracy    <       0.00002688 Ry

     total magnetization       =     3.00 Bohr mag/cell
     absolute magnetization    =    51.74 Bohr mag/cell

     iteration #221     ecut=   350.00 Ry     beta= 0.10
     Davidson diagonalization with overlap
     ethr =  3.58E-09,  avg # of iterations =  2.0

     total cpu time spent up to now is    32585.7 secs

     total energy              =   -7251.43757663 Ry
     Harris-Foulkes estimate   =   -7251.43756228 Ry
     estimated scf accuracy    <       0.00002682 Ry

     total magnetization       =     3.00 Bohr mag/cell
     absolute magnetization    =    51.74 Bohr mag/cell

     iteration #222     ecut=   350.00 Ry     beta= 0.10
     Davidson diagonalization with overlap
     ethr =  3.58E-09,  avg # of iterations =  2.1

     total cpu time spent up to now is    33437.8 secs

     total energy              =   -7251.43753278 Ry
     Harris-Foulkes estimate   =   -7251.43760290 Ry
     estimated scf accuracy    <       0.00002782 Ry

     total magnetization       =     3.00 Bohr mag/cell
     absolute magnetization    =    51.74 Bohr mag/cell

     iteration #223     ecut=   350.00 Ry     beta= 0.10
     Davidson diagonalization with overlap
     ethr =  3.58E-09,  avg # of iterations =  2.0

     total cpu time spent up to now is    34317.0 secs

     total energy              =   -7251.43750988 Ry
     Harris-Foulkes estimate   =   -7251.43756161 Ry
     estimated scf accuracy    <       0.00002780 Ry

     total magnetization       =     3.00 Bohr mag/cell
     absolute magnetization    =    51.73 Bohr mag/cell

     iteration #224     ecut=   350.00 Ry     beta= 0.10
     Davidson diagonalization with overlap
     ethr =  3.58E-09,  avg # of iterations =  3.4

     total cpu time spent up to now is    35371.6 secs

     total energy              =   -7251.43731199 Ry
     Harris-Foulkes estimate   =   -7251.43766273 Ry
     estimated scf accuracy    <       0.00002712 Ry

     total magnetization       =     3.00 Bohr mag/cell
     absolute magnetization    =    51.74 Bohr mag/cell

     iteration #225     ecut=   350.00 Ry     beta= 0.10
     Davidson diagonalization with overlap
     ethr =  3.58E-09,  avg # of iterations =  3.4

     total cpu time spent up to now is    36480.7 secs

     total energy              =   -7251.43748467 Ry
     Harris-Foulkes estimate   =   -7251.43753936 Ry
     estimated scf accuracy    <       0.00002795 Ry

     total magnetization       =     3.00 Bohr mag/cell
     absolute magnetization    =    51.74 Bohr mag/cell

     iteration #226     ecut=   350.00 Ry     beta= 0.10
     Davidson diagonalization with overlap
     ethr =  3.58E-09,  avg # of iterations =  2.0

     total cpu time spent up to now is    37333.4 secs

     total energy              =   -7251.43750857 Ry
     Harris-Foulkes estimate   =   -7251.43750662 Ry
     estimated scf accuracy    <       0.00002750 Ry

     total magnetization       =     3.00 Bohr mag/cell
     absolute magnetization    =    51.73 Bohr mag/cell

     iteration #227     ecut=   350.00 Ry     beta= 0.10
     Davidson diagonalization with overlap
     ethr =  3.58E-09,  avg # of iterations =  2.0

     total cpu time spent up to now is    38143.5 secs

     total energy              =   -7251.43752898 Ry
     Harris-Foulkes estimate   =   -7251.43751209 Ry
     estimated scf accuracy    <       0.00002766 Ry

     total magnetization       =     3.00 Bohr mag/cell
     absolute magnetization    =    51.73 Bohr mag/cell

     iteration #228     ecut=   350.00 Ry     beta= 0.10
     Davidson diagonalization with overlap
     ethr =  3.58E-09,  avg # of iterations =  2.0

     total cpu time spent up to now is    38981.6 secs

     total energy              =   -7251.43742759 Ry
     Harris-Foulkes estimate   =   -7251.43754852 Ry
     estimated scf accuracy    <       0.00002754 Ry

     total magnetization       =     3.00 Bohr mag/cell
     absolute magnetization    =    51.74 Bohr mag/cell

     iteration #229     ecut=   350.00 Ry     beta= 0.10
     Davidson diagonalization with overlap
     ethr =  3.58E-09,  avg # of iterations =  4.0

     total cpu time spent up to now is    40090.0 secs

     total energy              =   -7251.43767853 Ry
     Harris-Foulkes estimate   =   -7251.43768148 Ry
     estimated scf accuracy    <       0.00002795 Ry

     total magnetization       =     3.00 Bohr mag/cell
     absolute magnetization    =    51.74 Bohr mag/cell

     iteration #230     ecut=   350.00 Ry     beta= 0.10
     Davidson diagonalization with overlap
     ethr =  3.58E-09,  avg # of iterations =  2.0

     total cpu time spent up to now is    40906.0 secs

     total energy              =   -7251.43767282 Ry
     Harris-Foulkes estimate   =   -7251.43768263 Ry
     estimated scf accuracy    <       0.00002709 Ry

     total magnetization       =     3.00 Bohr mag/cell
     absolute magnetization    =    51.74 Bohr mag/cell

     iteration #231     ecut=   350.00 Ry     beta= 0.10
     Davidson diagonalization with overlap
     ethr =  3.58E-09,  avg # of iterations =  1.0

     total cpu time spent up to now is    41703.1 secs

     total energy              =   -7251.43769101 Ry
     Harris-Foulkes estimate   =   -7251.43767411 Ry
     estimated scf accuracy    <       0.00002729 Ry

     total magnetization       =     3.00 Bohr mag/cell
     absolute magnetization    =    51.74 Bohr mag/cell

     iteration #232     ecut=   350.00 Ry     beta= 0.10
     Davidson diagonalization with overlap
     ethr =  3.58E-09,  avg # of iterations =  2.0

     total cpu time spent up to now is    42539.9 secs

     total energy              =   -7251.43765638 Ry
     Harris-Foulkes estimate   =   -7251.43771054 Ry
     estimated scf accuracy    <       0.00002709 Ry

     total magnetization       =     3.00 Bohr mag/cell
     absolute magnetization    =    51.74 Bohr mag/cell

     iteration #233     ecut=   350.00 Ry     beta= 0.10
     Davidson diagonalization with overlap
     ethr =  3.58E-09,  avg # of iterations =  2.0

     total cpu time spent up to now is    43374.9 secs

     total energy              =   -7251.43766383 Ry
     Harris-Foulkes estimate   =   -7251.43767518 Ry
     estimated scf accuracy    <       0.00002736 Ry

     total magnetization       =     3.00 Bohr mag/cell
     absolute magnetization    =    51.74 Bohr mag/cell

     iteration #234     ecut=   350.00 Ry     beta= 0.10
     Davidson diagonalization with overlap
     ethr =  3.58E-09,  avg # of iterations =  2.0

     total cpu time spent up to now is    44190.1 secs

     total energy              =   -7251.43767488 Ry
     Harris-Foulkes estimate   =   -7251.43766835 Ry
     estimated scf accuracy    <       0.00002740 Ry

     total magnetization       =     3.00 Bohr mag/cell
     absolute magnetization    =    51.74 Bohr mag/cell

     iteration #235     ecut=   350.00 Ry     beta= 0.10
     Davidson diagonalization with overlap
     ethr =  3.58E-09,  avg # of iterations =  2.5

     total cpu time spent up to now is    45073.3 secs

     total energy              =   -7251.43772119 Ry
     Harris-Foulkes estimate   =   -7251.43772550 Ry
     estimated scf accuracy    <       0.00002697 Ry

     total magnetization       =     3.00 Bohr mag/cell
     absolute magnetization    =    51.74 Bohr mag/cell

     iteration #236     ecut=   350.00 Ry     beta= 0.10
     Davidson diagonalization with overlap
     ethr =  3.58E-09,  avg # of iterations =  2.0

     total cpu time spent up to now is    45888.4 secs

     total energy              =   -7251.43764721 Ry
     Harris-Foulkes estimate   =   -7251.43772547 Ry
     estimated scf accuracy    <       0.00002696 Ry

     total magnetization       =     3.00 Bohr mag/cell
     absolute magnetization    =    51.74 Bohr mag/cell

     iteration #237     ecut=   350.00 Ry     beta= 0.10
     Davidson diagonalization with overlap
     ethr =  3.58E-09,  avg # of iterations =  2.4

     total cpu time spent up to now is    46779.5 secs

     total energy              =   -7251.43754975 Ry
     Harris-Foulkes estimate   =   -7251.43768476 Ry
     estimated scf accuracy    <       0.00002906 Ry

     total magnetization       =     3.00 Bohr mag/cell
     absolute magnetization    =    51.74 Bohr mag/cell

     iteration #238     ecut=   350.00 Ry     beta= 0.10
     Davidson diagonalization with overlap
     ethr =  3.58E-09,  avg # of iterations =  3.7

     total cpu time spent up to now is    47856.2 secs

     total energy              =   -7251.43754375 Ry
     Harris-Foulkes estimate   =   -7251.43782270 Ry
     estimated scf accuracy    <       0.00002788 Ry

     total magnetization       =     3.00 Bohr mag/cell
     absolute magnetization    =    51.74 Bohr mag/cell

     iteration #239     ecut=   350.00 Ry     beta= 0.10
     Davidson diagonalization with overlap
     ethr =  3.58E-09,  avg # of iterations =  3.1

     total cpu time spent up to now is    48884.6 secs

     total energy              =   -7251.43771195 Ry
     Harris-Foulkes estimate   =   -7251.43771529 Ry
     estimated scf accuracy    <       0.00002854 Ry

     total magnetization       =     3.00 Bohr mag/cell
     absolute magnetization    =    51.74 Bohr mag/cell

     iteration #240     ecut=   350.00 Ry     beta= 0.10
     Davidson diagonalization with overlap
     ethr =  3.58E-09,  avg # of iterations =  1.0

     total cpu time spent up to now is    49680.7 secs

     total energy              =   -7251.43762644 Ry
     Harris-Foulkes estimate   =   -7251.43771224 Ry
     estimated scf accuracy    <       0.00002862 Ry

     total magnetization       =     3.00 Bohr mag/cell
     absolute magnetization    =    51.74 Bohr mag/cell

     iteration #241     ecut=   350.00 Ry     beta= 0.10
     Davidson diagonalization with overlap
     ethr =  3.58E-09,  avg # of iterations =  3.0

     total cpu time spent up to now is    50650.4 secs

     total energy              =   -7251.43767400 Ry
     Harris-Foulkes estimate   =   -7251.43767393 Ry
     estimated scf accuracy    <       0.00002730 Ry

     total magnetization       =     3.00 Bohr mag/cell
     absolute magnetization    =    51.74 Bohr mag/cell

     iteration #242     ecut=   350.00 Ry     beta= 0.10
     Davidson diagonalization with overlap
     ethr =  3.58E-09,  avg # of iterations =  1.5

     total cpu time spent up to now is    51454.2 secs

     total energy              =   -7251.43765293 Ry
     Harris-Foulkes estimate   =   -7251.43767515 Ry
     estimated scf accuracy    <       0.00002671 Ry

     total magnetization       =     3.00 Bohr mag/cell
     absolute magnetization    =    51.74 Bohr mag/cell

     iteration #243     ecut=   350.00 Ry     beta= 0.10
     Davidson diagonalization with overlap
     ethr =  3.58E-09,  avg # of iterations =  2.0

     total cpu time spent up to now is    52277.7 secs

     total energy              =   -7251.43761019 Ry
     Harris-Foulkes estimate   =   -7251.43766308 Ry
     estimated scf accuracy    <       0.00002685 Ry

     total magnetization       =     3.00 Bohr mag/cell
     absolute magnetization    =    51.74 Bohr mag/cell

     iteration #244     ecut=   350.00 Ry     beta= 0.10
     Davidson diagonalization with overlap
     ethr =  3.58E-09,  avg # of iterations =  2.1

     total cpu time spent up to now is    53118.7 secs

     total energy              =   -7251.43764609 Ry
     Harris-Foulkes estimate   =   -7251.43762998 Ry
     estimated scf accuracy    <       0.00002691 Ry

     total magnetization       =     3.00 Bohr mag/cell
     absolute magnetization    =    51.74 Bohr mag/cell

     iteration #245     ecut=   350.00 Ry     beta= 0.10
     Davidson diagonalization with overlap
     ethr =  3.58E-09,  avg # of iterations =  2.0

     total cpu time spent up to now is    53953.2 secs

     total energy              =   -7251.43766532 Ry
     Harris-Foulkes estimate   =   -7251.43766298 Ry
     estimated scf accuracy    <       0.00002656 Ry

     total magnetization       =     3.00 Bohr mag/cell
     absolute magnetization    =    51.74 Bohr mag/cell

     iteration #246     ecut=   350.00 Ry     beta= 0.10
     Davidson diagonalization with overlap
     ethr =  3.58E-09,  avg # of iterations =  1.0

     total cpu time spent up to now is    54751.1 secs

     total energy              =   -7251.43768015 Ry
     Harris-Foulkes estimate   =   -7251.43766620 Ry
     estimated scf accuracy    <       0.00002657 Ry

     total magnetization       =     3.00 Bohr mag/cell
     absolute magnetization    =    51.73 Bohr mag/cell

     iteration #247     ecut=   350.00 Ry     beta= 0.10
     Davidson diagonalization with overlap
     ethr =  3.58E-09,  avg # of iterations =  3.0

     total cpu time spent up to now is    55637.7 secs

     total energy              =   -7251.43762794 Ry
     Harris-Foulkes estimate   =   -7251.43771819 Ry
     estimated scf accuracy    <       0.00002685 Ry

     total magnetization       =     3.00 Bohr mag/cell
     absolute magnetization    =    51.74 Bohr mag/cell

     iteration #248     ecut=   350.00 Ry     beta= 0.10
     Davidson diagonalization with overlap
     ethr =  3.58E-09,  avg # of iterations =  2.3

     total cpu time spent up to now is    56514.2 secs

     total energy              =   -7251.43767759 Ry
     Harris-Foulkes estimate   =   -7251.43766636 Ry
     estimated scf accuracy    <       0.00002708 Ry

     total magnetization       =     3.00 Bohr mag/cell
     absolute magnetization    =    51.73 Bohr mag/cell

     iteration #249     ecut=   350.00 Ry     beta= 0.10
     Davidson diagonalization with overlap
     ethr =  3.58E-09,  avg # of iterations =  2.0

     total cpu time spent up to now is    57352.7 secs

     total energy              =   -7251.43764067 Ry
     Harris-Foulkes estimate   =   -7251.43768394 Ry
     estimated scf accuracy    <       0.00002680 Ry

     total magnetization       =     3.00 Bohr mag/cell
     absolute magnetization    =    51.74 Bohr mag/cell

     iteration #250     ecut=   350.00 Ry     beta= 0.10
     Davidson diagonalization with overlap
     ethr =  3.58E-09,  avg # of iterations =  2.0

     total cpu time spent up to now is    58179.6 secs

     total energy              =   -7251.43765500 Ry
     Harris-Foulkes estimate   =   -7251.43765370 Ry
     estimated scf accuracy    <       0.00002702 Ry

     total magnetization       =     3.00 Bohr mag/cell
     absolute magnetization    =    51.74 Bohr mag/cell

     iteration #251     ecut=   350.00 Ry     beta= 0.10
     Davidson diagonalization with overlap
     ethr =  3.58E-09,  avg # of iterations =  1.6

     total cpu time spent up to now is    58984.7 secs

     total energy              =   -7251.43765223 Ry
     Harris-Foulkes estimate   =   -7251.43765762 Ry
     estimated scf accuracy    <       0.00002672 Ry

     total magnetization       =     3.00 Bohr mag/cell
     absolute magnetization    =    51.74 Bohr mag/cell

     iteration #252     ecut=   350.00 Ry     beta= 0.10
     Davidson diagonalization with overlap
     ethr =  3.58E-09,  avg # of iterations =  2.9

     total cpu time spent up to now is    59949.0 secs

     total energy              =   -7251.43759051 Ry
     Harris-Foulkes estimate   =   -7251.43772978 Ry
     estimated scf accuracy    <       0.00002726 Ry

     total magnetization       =     3.00 Bohr mag/cell
     absolute magnetization    =    51.74 Bohr mag/cell

     iteration #253     ecut=   350.00 Ry     beta= 0.10
     Davidson diagonalization with overlap
     ethr =  3.58E-09,  avg # of iterations =  3.0

     total cpu time spent up to now is    60981.1 secs

     total energy              =   -7251.43760024 Ry
     Harris-Foulkes estimate   =   -7251.43767455 Ry
     estimated scf accuracy    <       0.00002959 Ry

     total magnetization       =     3.00 Bohr mag/cell
     absolute magnetization    =    51.74 Bohr mag/cell

     iteration #254     ecut=   350.00 Ry     beta= 0.10
     Davidson diagonalization with overlap
     ethr =  3.58E-09,  avg # of iterations =  2.2

     total cpu time spent up to now is    61887.1 secs

     total energy              =   -7251.43762146 Ry
     Harris-Foulkes estimate   =   -7251.43763176 Ry
     estimated scf accuracy    <       0.00002881 Ry

     total magnetization       =     3.00 Bohr mag/cell
     absolute magnetization    =    51.74 Bohr mag/cell

     iteration #255     ecut=   350.00 Ry     beta= 0.10
     Davidson diagonalization with overlap
     ethr =  3.58E-09,  avg # of iterations =  3.0

     total cpu time spent up to now is    62835.2 secs

     total energy              =   -7251.43767891 Ry
     Harris-Foulkes estimate   =   -7251.43771055 Ry
     estimated scf accuracy    <       0.00003014 Ry

     total magnetization       =     3.00 Bohr mag/cell
     absolute magnetization    =    51.74 Bohr mag/cell

     iteration #256     ecut=   350.00 Ry     beta= 0.10
     Davidson diagonalization with overlap
     ethr =  3.58E-09,  avg # of iterations =  2.0

     total cpu time spent up to now is    63688.0 secs

     total energy              =   -7251.43733144 Ry
     Harris-Foulkes estimate   =   -7251.43769764 Ry
     estimated scf accuracy    <       0.00003207 Ry

     total magnetization       =     3.00 Bohr mag/cell
     absolute magnetization    =    51.75 Bohr mag/cell

     iteration #257     ecut=   350.00 Ry     beta= 0.10
     Davidson diagonalization with overlap
     ethr =  3.58E-09,  avg # of iterations =  3.8

     total cpu time spent up to now is    64767.2 secs

     total energy              =   -7251.43734412 Ry
     Harris-Foulkes estimate   =   -7251.43756900 Ry
     estimated scf accuracy    <       0.00003383 Ry

     total magnetization       =     3.00 Bohr mag/cell
     absolute magnetization    =    51.74 Bohr mag/cell

     iteration #258     ecut=   350.00 Ry     beta= 0.10
     Davidson diagonalization with overlap
     ethr =  3.58E-09,  avg # of iterations =  3.5

     total cpu time spent up to now is    65878.7 secs

     total energy              =   -7251.43771724 Ry
     Harris-Foulkes estimate   =   -7251.43772248 Ry
     estimated scf accuracy    <       0.00002684 Ry

     total magnetization       =     3.00 Bohr mag/cell
     absolute magnetization    =    51.74 Bohr mag/cell

     iteration #259     ecut=   350.00 Ry     beta= 0.10
     Davidson diagonalization with overlap
     ethr =  3.58E-09,  avg # of iterations =  2.0

     total cpu time spent up to now is    66698.0 secs

     total energy              =   -7251.43772100 Ry
     Harris-Foulkes estimate   =   -7251.43772289 Ry
     estimated scf accuracy    <       0.00002663 Ry

     total magnetization       =     3.00 Bohr mag/cell
     absolute magnetization    =    51.74 Bohr mag/cell

     iteration #260     ecut=   350.00 Ry     beta= 0.10
     Davidson diagonalization with overlap
     ethr =  3.58E-09,  avg # of iterations =  1.0

     total cpu time spent up to now is    67495.4 secs

     total energy              =   -7251.43772254 Ry
     Harris-Foulkes estimate   =   -7251.43772132 Ry
     estimated scf accuracy    <       0.00002663 Ry

     total magnetization       =     3.00 Bohr mag/cell
     absolute magnetization    =    51.74 Bohr mag/cell

     iteration #261     ecut=   350.00 Ry     beta= 0.10
     Davidson diagonalization with overlap
     ethr =  3.58E-09,  avg # of iterations =  1.0

     total cpu time spent up to now is    68292.2 secs

     total energy              =   -7251.43773315 Ry
     Harris-Foulkes estimate   =   -7251.43772285 Ry
     estimated scf accuracy    <       0.00002664 Ry

     total magnetization       =     3.00 Bohr mag/cell
     absolute magnetization    =    51.74 Bohr mag/cell

     iteration #262     ecut=   350.00 Ry     beta= 0.10
     Davidson diagonalization with overlap
     ethr =  3.58E-09,  avg # of iterations =  1.2

     total cpu time spent up to now is    69092.4 secs

     total energy              =   -7251.43773602 Ry
     Harris-Foulkes estimate   =   -7251.43773563 Ry
     estimated scf accuracy    <       0.00002658 Ry

     total magnetization       =     3.00 Bohr mag/cell
     absolute magnetization    =    51.74 Bohr mag/cell

     iteration #263     ecut=   350.00 Ry     beta= 0.10
     Davidson diagonalization with overlap
     ethr =  3.58E-09,  avg # of iterations =  3.0

     total cpu time spent up to now is    70029.4 secs

     total energy              =   -7251.43627644 Ry
     Harris-Foulkes estimate   =   -7251.43780233 Ry
     estimated scf accuracy    <       0.00002677 Ry

     total magnetization       =     3.00 Bohr mag/cell
     absolute magnetization    =    51.74 Bohr mag/cell

     iteration #264     ecut=   350.00 Ry     beta= 0.10
     Davidson diagonalization with overlap
     ethr =  3.58E-09,  avg # of iterations =  4.2

     total cpu time spent up to now is    71297.9 secs

     total energy              =   -7251.43716161 Ry
     Harris-Foulkes estimate   =   -7251.43750568 Ry
     estimated scf accuracy    <       0.00003207 Ry

     total magnetization       =     3.00 Bohr mag/cell
     absolute magnetization    =    51.74 Bohr mag/cell

     iteration #265     ecut=   350.00 Ry     beta= 0.10
     Davidson diagonalization with overlap
     ethr =  3.58E-09,  avg # of iterations =  4.0

     total cpu time spent up to now is    72428.9 secs

     total energy              =   -7251.43693872 Ry
     Harris-Foulkes estimate   =   -7251.43770399 Ry
     estimated scf accuracy    <       0.00002698 Ry

     total magnetization       =     3.00 Bohr mag/cell
     absolute magnetization    =    51.74 Bohr mag/cell

     iteration #266     ecut=   350.00 Ry     beta= 0.10
     Davidson diagonalization with overlap
     ethr =  3.58E-09,  avg # of iterations =  4.0

     total cpu time spent up to now is    73566.5 secs

     total energy              =   -7251.43743324 Ry
     Harris-Foulkes estimate   =   -7251.43750406 Ry
     estimated scf accuracy    <       0.00002723 Ry

     total magnetization       =     3.00 Bohr mag/cell
     absolute magnetization    =    51.73 Bohr mag/cell

     iteration #267     ecut=   350.00 Ry     beta= 0.10
     Davidson diagonalization with overlap
     ethr =  3.58E-09,  avg # of iterations =  3.1

     total cpu time spent up to now is    74610.2 secs

     total energy              =   -7251.43762485 Ry
     Harris-Foulkes estimate   =   -7251.43761620 Ry
     estimated scf accuracy    <       0.00002758 Ry

     total magnetization       =     3.00 Bohr mag/cell
     absolute magnetization    =    51.74 Bohr mag/cell

     iteration #268     ecut=   350.00 Ry     beta= 0.10
     Davidson diagonalization with overlap
     ethr =  3.58E-09,  avg # of iterations =  2.0

     total cpu time spent up to now is    75426.9 secs

     total energy              =   -7251.43763241 Ry
     Harris-Foulkes estimate   =   -7251.43763109 Ry
     estimated scf accuracy    <       0.00002728 Ry

     total magnetization       =     3.00 Bohr mag/cell
     absolute magnetization    =    51.74 Bohr mag/cell

     iteration #269     ecut=   350.00 Ry     beta= 0.10
     Davidson diagonalization with overlap
     ethr =  3.58E-09,  avg # of iterations =  2.0

     total cpu time spent up to now is    76254.6 secs

     total energy              =   -7251.43763655 Ry
     Harris-Foulkes estimate   =   -7251.43764368 Ry
     estimated scf accuracy    <       0.00002699 Ry

     total magnetization       =     3.00 Bohr mag/cell
     absolute magnetization    =    51.74 Bohr mag/cell

     iteration #270     ecut=   350.00 Ry     beta= 0.10
     Davidson diagonalization with overlap
     ethr =  3.58E-09,  avg # of iterations =  3.1

     total cpu time spent up to now is    77201.1 secs

     total energy              =   -7251.43772145 Ry
     Harris-Foulkes estimate   =   -7251.43771740 Ry
     estimated scf accuracy    <       0.00002678 Ry

     total magnetization       =     3.00 Bohr mag/cell
     absolute magnetization    =    51.74 Bohr mag/cell

     iteration #271     ecut=   350.00 Ry     beta= 0.10
     Davidson diagonalization with overlap
     ethr =  3.58E-09,  avg # of iterations =  2.9

     total cpu time spent up to now is    78146.1 secs

     total energy              =   -7251.43737202 Ry
     Harris-Foulkes estimate   =   -7251.43775726 Ry
     estimated scf accuracy    <       0.00002693 Ry

     total magnetization       =     3.00 Bohr mag/cell
     absolute magnetization    =    51.74 Bohr mag/cell

     iteration #272     ecut=   350.00 Ry     beta= 0.10
     Davidson diagonalization with overlap
     ethr =  3.58E-09,  avg # of iterations =  3.6

     total cpu time spent up to now is    79225.6 secs

     total energy              =   -7251.43750976 Ry
     Harris-Foulkes estimate   =   -7251.43762454 Ry
     estimated scf accuracy    <       0.00002752 Ry

     total magnetization       =     3.00 Bohr mag/cell
     absolute magnetization    =    51.74 Bohr mag/cell

     iteration #273     ecut=   350.00 Ry     beta= 0.10
     Davidson diagonalization with overlap
     ethr =  3.58E-09,  avg # of iterations =  2.7

     total cpu time spent up to now is    80168.7 secs

     total energy              =   -7251.43723208 Ry
     Harris-Foulkes estimate   =   -7251.43757023 Ry
     estimated scf accuracy    <       0.00002743 Ry

     total magnetization       =     3.00 Bohr mag/cell
     absolute magnetization    =    51.73 Bohr mag/cell

     iteration #274     ecut=   350.00 Ry     beta= 0.10
     Davidson diagonalization with overlap
     ethr =  3.58E-09,  avg # of iterations =  4.0

     total cpu time spent up to now is    81324.8 secs

     total energy              =   -7251.43750145 Ry
     Harris-Foulkes estimate   =   -7251.43776000 Ry
     estimated scf accuracy    <       0.00002691 Ry

     total magnetization       =     3.00 Bohr mag/cell
     absolute magnetization    =    51.74 Bohr mag/cell

     iteration #275     ecut=   350.00 Ry     beta= 0.10
     Davidson diagonalization with overlap
     ethr =  3.58E-09,  avg # of iterations =  3.0

     total cpu time spent up to now is    82338.9 secs

     total energy              =   -7251.43749085 Ry
     Harris-Foulkes estimate   =   -7251.43765567 Ry
     estimated scf accuracy    <       0.00002803 Ry

     total magnetization       =     3.00 Bohr mag/cell
     absolute magnetization    =    51.74 Bohr mag/cell

     iteration #276     ecut=   350.00 Ry     beta= 0.10
     Davidson diagonalization with overlap
     ethr =  3.58E-09,  avg # of iterations =  4.0

     total cpu time spent up to now is    83439.2 secs

     total energy              =   -7251.43727142 Ry
     Harris-Foulkes estimate   =   -7251.43780396 Ry
     estimated scf accuracy    <       0.00002802 Ry

     total magnetization       =     3.00 Bohr mag/cell
     absolute magnetization    =    51.74 Bohr mag/cell

     iteration #277     ecut=   350.00 Ry     beta= 0.10
     Davidson diagonalization with overlap
     ethr =  3.58E-09,  avg # of iterations =  4.0

     total cpu time spent up to now is    84559.2 secs

     total energy              =   -7251.43766072 Ry
     Harris-Foulkes estimate   =   -7251.43764323 Ry
     estimated scf accuracy    <       0.00002704 Ry

     total magnetization       =     3.00 Bohr mag/cell
     absolute magnetization    =    51.74 Bohr mag/cell

     iteration #278     ecut=   350.00 Ry     beta= 0.10
     Davidson diagonalization with overlap
     ethr =  3.58E-09,  avg # of iterations =  2.1

     total cpu time spent up to now is    85404.1 secs

     total energy              =   -7251.43769956 Ry
     Harris-Foulkes estimate   =   -7251.43768499 Ry
     estimated scf accuracy    <       0.00002658 Ry

     total magnetization       =     3.00 Bohr mag/cell
     absolute magnetization    =    51.74 Bohr mag/cell

     iteration #279     ecut=   350.00 Ry     beta= 0.10
     Davidson diagonalization with overlap
     ethr =  3.58E-09,  avg # of iterations =  2.1

     total cpu time spent up to now is    86224.7 secs

     total energy              =   -7251.43769764 Ry
     Harris-Foulkes estimate   =   -7251.43770769 Ry
     estimated scf accuracy    <       0.00002654 Ry

[...]

     iteration #322     ecut=   350.00 Ry     beta= 0.10
     Davidson diagonalization with overlap
     ethr =  3.58E-09,  avg # of iterations =  3.5

     total cpu time spent up to now is   126095.0 secs

     total energy              =   -7251.43769185 Ry
     Harris-Foulkes estimate   =   -7251.43777614 Ry
     estimated scf accuracy    <       0.00002693 Ry

     total magnetization       =     3.00 Bohr mag/cell
     absolute magnetization    =    51.74 Bohr mag/cell

     iteration #323     ecut=   350.00 Ry     beta= 0.10
     Davidson diagonalization with overlap
     ethr =  3.58E-09,  avg # of iterations =  2.1

     total cpu time spent up to now is   126968.5 secs

     total energy              =   -7251.43772078 Ry
     Harris-Foulkes estimate   =   -7251.43772750 Ry
     estimated scf accuracy    <       0.00002733 Ry

     total magnetization       =     3.00 Bohr mag/cell
     absolute magnetization    =    51.74 Bohr mag/cell

     iteration #324     ecut=   350.00 Ry     beta= 0.10
     Davidson diagonalization with overlap
     ethr =  3.58E-09,  avg # of iterations =  2.5

     total cpu time spent up to now is   127855.6 secs

     total energy              =   -7251.43765902 Ry
     Harris-Foulkes estimate   =   -7251.43775343 Ry
     estimated scf accuracy    <       0.00002686 Ry

     total magnetization       =     3.00 Bohr mag/cell
     absolute magnetization    =    51.74 Bohr mag/cell

     iteration #325     ecut=   350.00 Ry     beta= 0.10
     Davidson diagonalization with overlap
     ethr =  3.58E-09,  avg # of iterations =  3.4

     total cpu time spent up to now is   128932.4 secs

     total energy              =   -7251.43781278 Ry
     Harris-Foulkes estimate   =   -7251.43787221 Ry
     estimated scf accuracy    <       0.00002768 Ry

     total magnetization       =     3.00 Bohr mag/cell
     absolute magnetization    =    51.74 Bohr mag/cell

     iteration #326     ecut=   350.00 Ry     beta= 0.10
     Davidson diagonalization with overlap
     ethr =  3.58E-09,  avg # of iterations =  2.0

     total cpu time spent up to now is   129773.0 secs

     total energy              =   -7251.43783245 Ry
     Harris-Foulkes estimate   =   -7251.43783384 Ry
     estimated scf accuracy    <       0.00002812 Ry

     total magnetization       =     3.00 Bohr mag/cell
     absolute magnetization    =    51.74 Bohr mag/cell

     iteration #327     ecut=   350.00 Ry     beta= 0.10
     Davidson diagonalization with overlap
     ethr =  3.58E-09,  avg # of iterations =  3.1

     total cpu time spent up to now is   130690.0 secs

     total energy              =   -7251.43790459 Ry
     Harris-Foulkes estimate   =   -7251.43790103 Ry
     estimated scf accuracy    <       0.00002794 Ry

     total magnetization       =     3.00 Bohr mag/cell
     absolute magnetization    =    51.74 Bohr mag/cell

     iteration #328     ecut=   350.00 Ry     beta= 0.10
     Davidson diagonalization with overlap
     ethr =  3.58E-09,  avg # of iterations =  2.1

     total cpu time spent up to now is   131519.1 secs

     total energy              =   -7251.43779816 Ry
     Harris-Foulkes estimate   =   -7251.43791814 Ry
     estimated scf accuracy    <       0.00002750 Ry

     total magnetization       =     3.00 Bohr mag/cell
     absolute magnetization    =    51.75 Bohr mag/cell

     iteration #329     ecut=   350.00 Ry     beta= 0.10
     Davidson diagonalization with overlap
     ethr =  3.58E-09,  avg # of iterations =  3.5

     total cpu time spent up to now is   132459.2 secs

     total energy              =   -7251.43779297 Ry
     Harris-Foulkes estimate   =   -7251.43792144 Ry
     estimated scf accuracy    <       0.00002741 Ry

     total magnetization       =     3.00 Bohr mag/cell
     absolute magnetization    =    51.75 Bohr mag/cell

     iteration #330     ecut=   350.00 Ry     beta= 0.10
     Davidson diagonalization with overlap
     ethr =  3.58E-09,  avg # of iterations =  3.1

     total cpu time spent up to now is   133395.0 secs

     total energy              =   -7251.43791156 Ry
     Harris-Foulkes estimate   =   -7251.43789585 Ry
     estimated scf accuracy    <       0.00002772 Ry

     total magnetization       =     3.00 Bohr mag/cell
     absolute magnetization    =    51.75 Bohr mag/cell

     iteration #331     ecut=   350.00 Ry     beta= 0.10
     Davidson diagonalization with overlap
     ethr =  3.58E-09,  avg # of iterations =  2.0

     total cpu time spent up to now is   134227.5 secs

     total energy              =   -7251.43786073 Ry
     Harris-Foulkes estimate   =   -7251.43792729 Ry
     estimated scf accuracy    <       0.00002739 Ry

     total magnetization       =     3.00 Bohr mag/cell
     absolute magnetization    =    51.75 Bohr mag/cell

     iteration #332     ecut=   350.00 Ry     beta= 0.10
     Davidson diagonalization with overlap
     ethr =  3.58E-09,  avg # of iterations =  2.0

     total cpu time spent up to now is   135076.6 secs

     total energy              =   -7251.43765054 Ry
     Harris-Foulkes estimate   =   -7251.43788806 Ry
     estimated scf accuracy    <       0.00002766 Ry

     total magnetization       =     3.00 Bohr mag/cell
     absolute magnetization    =    51.74 Bohr mag/cell

     iteration #333     ecut=   350.00 Ry     beta= 0.10
     Davidson diagonalization with overlap
     ethr =  3.58E-09,  avg # of iterations =  4.0

     total cpu time spent up to now is   136130.9 secs

     total energy              =   -7251.43772868 Ry
     Harris-Foulkes estimate   =   -7251.43779151 Ry
     estimated scf accuracy    <       0.00002718 Ry

     total magnetization       =     3.00 Bohr mag/cell
     absolute magnetization    =    51.74 Bohr mag/cell

     iteration #334     ecut=   350.00 Ry     beta= 0.10
     Davidson diagonalization with overlap
     ethr =  3.58E-09,  avg # of iterations =  3.0

     total cpu time spent up to now is   137170.7 secs

     total energy              =   -7251.43782779 Ry
     Harris-Foulkes estimate   =   -7251.43788674 Ry
     estimated scf accuracy    <       0.00002696 Ry

     total magnetization       =     3.00 Bohr mag/cell
     absolute magnetization    =    51.74 Bohr mag/cell

     iteration #335     ecut=   350.00 Ry     beta= 0.10
     Davidson diagonalization with overlap
     ethr =  3.58E-09,  avg # of iterations =  2.0

     total cpu time spent up to now is   138018.5 secs

     total energy              =   -7251.43747291 Ry
     Harris-Foulkes estimate   =   -7251.43784919 Ry
     estimated scf accuracy    <       0.00002734 Ry

     total magnetization       =     3.00 Bohr mag/cell
     absolute magnetization    =    51.74 Bohr mag/cell

     iteration #336     ecut=   350.00 Ry     beta= 0.10
     Davidson diagonalization with overlap
     ethr =  3.58E-09,  avg # of iterations =  4.0

     total cpu time spent up to now is   139119.1 secs

     total energy              =   -7251.43769998 Ry
     Harris-Foulkes estimate   =   -7251.43772724 Ry
     estimated scf accuracy    <       0.00003153 Ry

     total magnetization       =     3.00 Bohr mag/cell
     absolute magnetization    =    51.74 Bohr mag/cell

     iteration #337     ecut=   350.00 Ry     beta= 0.10
     Davidson diagonalization with overlap
     ethr =  3.58E-09,  avg # of iterations =  2.5

     total cpu time spent up to now is   140012.6 secs

     total energy              =   -7251.43771040 Ry
     Harris-Foulkes estimate   =   -7251.43775607 Ry
     estimated scf accuracy    <       0.00003514 Ry

     total magnetization       =     3.00 Bohr mag/cell
     absolute magnetization    =    51.74 Bohr mag/cell

     iteration #338     ecut=   350.00 Ry     beta= 0.10
     Davidson diagonalization with overlap
     ethr =  3.58E-09,  avg # of iterations =  3.0

     total cpu time spent up to now is   141014.4 secs

     total energy              =   -7251.43755774 Ry
     Harris-Foulkes estimate   =   -7251.43783861 Ry
     estimated scf accuracy    <       0.00002790 Ry

     total magnetization       =     3.00 Bohr mag/cell
     absolute magnetization    =    51.74 Bohr mag/cell

     iteration #339     ecut=   350.00 Ry     beta= 0.10
     Davidson diagonalization with overlap
     ethr =  3.58E-09,  avg # of iterations =  3.5

     total cpu time spent up to now is   142075.2 secs

     total energy              =   -7251.43703814 Ry
     Harris-Foulkes estimate   =   -7251.43788257 Ry
     estimated scf accuracy    <       0.00002751 Ry

     total magnetization       =     3.00 Bohr mag/cell
     absolute magnetization    =    51.74 Bohr mag/cell

     iteration #340     ecut=   350.00 Ry     beta= 0.10
     Davidson diagonalization with overlap
     ethr =  3.58E-09,  avg # of iterations =  4.0

     total cpu time spent up to now is   143239.9 secs

     total energy              =   -7251.43762890 Ry
     Harris-Foulkes estimate   =   -7251.43769921 Ry
     estimated scf accuracy    <       0.00002830 Ry

     total magnetization       =     3.00 Bohr mag/cell
     absolute magnetization    =    51.74 Bohr mag/cell

     iteration #341     ecut=   350.00 Ry     beta= 0.10
     Davidson diagonalization with overlap
     ethr =  3.58E-09,  avg # of iterations =  3.1

     total cpu time spent up to now is   144286.8 secs

     total energy              =   -7251.43722330 Ry
     Harris-Foulkes estimate   =   -7251.43780073 Ry
     estimated scf accuracy    <       0.00002876 Ry

     total magnetization       =     3.00 Bohr mag/cell
     absolute magnetization    =    51.74 Bohr mag/cell

     iteration #342     ecut=   350.00 Ry     beta= 0.10
     Davidson diagonalization with overlap
     ethr =  3.58E-09,  avg # of iterations =  4.0

     total cpu time spent up to now is   145468.0 secs

     total energy              =   -7251.43680794 Ry
     Harris-Foulkes estimate   =   -7251.43799645 Ry
     estimated scf accuracy    <       0.00002768 Ry

     total magnetization       =     3.00 Bohr mag/cell
     absolute magnetization    =    51.75 Bohr mag/cell

     iteration #343     ecut=   350.00 Ry     beta= 0.10
     Davidson diagonalization with overlap
     ethr =  3.58E-09,  avg # of iterations =  4.1

     total cpu time spent up to now is   146681.8 secs

     total energy              =   -7251.43754723 Ry
     Harris-Foulkes estimate   =   -7251.43774847 Ry
     estimated scf accuracy    <       0.00002989 Ry

     total magnetization       =     3.00 Bohr mag/cell
     absolute magnetization    =    51.74 Bohr mag/cell

     iteration #344     ecut=   350.00 Ry     beta= 0.10
     Davidson diagonalization with overlap
     ethr =  3.58E-09,  avg # of iterations =  3.9

     total cpu time spent up to now is   147771.3 secs

     total energy              =   -7251.43782667 Ry
     Harris-Foulkes estimate   =   -7251.43787120 Ry
     estimated scf accuracy    <       0.00002648 Ry

     total magnetization       =     3.00 Bohr mag/cell
     absolute magnetization    =    51.74 Bohr mag/cell

     iteration #345     ecut=   350.00 Ry     beta= 0.10
     Davidson diagonalization with overlap
     ethr =  3.58E-09,  avg # of iterations =  2.0

     total cpu time spent up to now is   148603.7 secs

     total energy              =   -7251.43784379 Ry
     Harris-Foulkes estimate   =   -7251.43784206 Ry
     estimated scf accuracy    <       0.00002651 Ry

     total magnetization       =     3.00 Bohr mag/cell
     absolute magnetization    =    51.74 Bohr mag/cell

     iteration #346     ecut=   350.00 Ry     beta= 0.10
     Davidson diagonalization with overlap
     ethr =  3.58E-09,  avg # of iterations =  2.0

     total cpu time spent up to now is   149416.7 secs

     total energy              =   -7251.43712400 Ry
     Harris-Foulkes estimate   =   -7251.43784606 Ry
     estimated scf accuracy    <       0.00002634 Ry

     total magnetization       =     3.00 Bohr mag/cell
     absolute magnetization    =    51.74 Bohr mag/cell

     iteration #347     ecut=   350.00 Ry     beta= 0.10
     Davidson diagonalization with overlap
     ethr =  3.57E-09,  avg # of iterations =  4.1

     total cpu time spent up to now is   150535.7 secs

     total energy              =   -7251.43776034 Ry
     Harris-Foulkes estimate   =   -7251.43780663 Ry
     estimated scf accuracy    <       0.00002788 Ry

     total magnetization       =     3.00 Bohr mag/cell
     absolute magnetization    =    51.74 Bohr mag/cell

     iteration #348     ecut=   350.00 Ry     beta= 0.10
     Davidson diagonalization with overlap
     ethr =  3.57E-09,  avg # of iterations =  3.0

     total cpu time spent up to now is   151516.8 secs

     total energy              =   -7251.43786003 Ry
     Harris-Foulkes estimate   =   -7251.43788284 Ry
     estimated scf accuracy    <       0.00002667 Ry

     total magnetization       =     3.00 Bohr mag/cell
     absolute magnetization    =    51.74 Bohr mag/cell

     iteration #349     ecut=   350.00 Ry     beta= 0.10
     Davidson diagonalization with overlap
     ethr =  3.57E-09,  avg # of iterations =  2.0

     total cpu time spent up to now is   152336.8 secs

     total energy              =   -7251.43783582 Ry
     Harris-Foulkes estimate   =   -7251.43786912 Ry
     estimated scf accuracy    <       0.00002682 Ry

     total magnetization       =     3.00 Bohr mag/cell
     absolute magnetization    =    51.74 Bohr mag/cell

     iteration #350     ecut=   350.00 Ry     beta= 0.10
     Davidson diagonalization with overlap
     ethr =  3.57E-09,  avg # of iterations =  3.0

     total cpu time spent up to now is   153356.2 secs

     total energy              =   -7251.43793462 Ry
     Harris-Foulkes estimate   =   -7251.43796051 Ry
     estimated scf accuracy    <       0.00002632 Ry

     total magnetization       =     3.00 Bohr mag/cell
     absolute magnetization    =    51.75 Bohr mag/cell

     iteration #351     ecut=   350.00 Ry     beta= 0.10
     Davidson diagonalization with overlap
     ethr =  3.57E-09,  avg # of iterations =  2.8

     total cpu time spent up to now is   154270.5 secs

     total energy              =   -7251.43794272 Ry
     Harris-Foulkes estimate   =   -7251.43800484 Ry
     estimated scf accuracy    <       0.00002713 Ry

     total magnetization       =     3.00 Bohr mag/cell
     absolute magnetization    =    51.75 Bohr mag/cell

     iteration #352     ecut=   350.00 Ry     beta= 0.10
     Davidson diagonalization with overlap
     ethr =  3.57E-09,  avg # of iterations =  2.1

     total cpu time spent up to now is   155116.4 secs

     total energy              =   -7251.43758752 Ry
     Harris-Foulkes estimate   =   -7251.43796632 Ry
     estimated scf accuracy    <       0.00002735 Ry

     total magnetization       =     3.00 Bohr mag/cell
     absolute magnetization    =    51.75 Bohr mag/cell

     iteration #353     ecut=   350.00 Ry     beta= 0.10
     Davidson diagonalization with overlap
     ethr =  3.57E-09,  avg # of iterations =  4.0

     total cpu time spent up to now is   156266.3 secs

     total energy              =   -7251.43804985 Ry
     Harris-Foulkes estimate   =   -7251.43815344 Ry
     estimated scf accuracy    <       0.00002790 Ry

     total magnetization       =     3.00 Bohr mag/cell
     absolute magnetization    =    51.75 Bohr mag/cell

     iteration #354     ecut=   350.00 Ry     beta= 0.10
     Davidson diagonalization with overlap
     ethr =  3.57E-09,  avg # of iterations =  2.8

     total cpu time spent up to now is   157167.6 secs

     total energy              =   -7251.43777284 Ry
     Harris-Foulkes estimate   =   -7251.43810289 Ry
     estimated scf accuracy    <       0.00002755 Ry

     total magnetization       =     3.00 Bohr mag/cell
     absolute magnetization    =    51.75 Bohr mag/cell

     iteration #355     ecut=   350.00 Ry     beta= 0.10
     Davidson diagonalization with overlap
     ethr =  3.57E-09,  avg # of iterations =  3.8

     total cpu time spent up to now is   158238.4 secs

     total energy              =   -7251.43794710 Ry
     Harris-Foulkes estimate   =   -7251.43801153 Ry
     estimated scf accuracy    <       0.00002804 Ry

     total magnetization       =     3.00 Bohr mag/cell
     absolute magnetization    =    51.75 Bohr mag/cell

     iteration #356     ecut=   350.00 Ry     beta= 0.10
     Davidson diagonalization with overlap
     ethr =  3.57E-09,  avg # of iterations =  2.6

     total cpu time spent up to now is   159103.6 secs

     total energy              =   -7251.43797204 Ry
     Harris-Foulkes estimate   =   -7251.43798012 Ry
     estimated scf accuracy    <       0.00002791 Ry

     total magnetization       =     3.00 Bohr mag/cell
     absolute magnetization    =    51.75 Bohr mag/cell

     iteration #357     ecut=   350.00 Ry     beta= 0.10
     Davidson diagonalization with overlap
     ethr =  3.57E-09,  avg # of iterations =  2.6

     total cpu time spent up to now is   160002.6 secs

     total energy              =   -7251.43800908 Ry
     Harris-Foulkes estimate   =   -7251.43802566 Ry
     estimated scf accuracy    <       0.00002742 Ry

     total magnetization       =     3.00 Bohr mag/cell
     absolute magnetization    =    51.75 Bohr mag/cell

     Maximum CPU time exceeded

     max_seconds     =  160000.00
     elapsed seconds =  160002.18
     Calculation stopped in scf loop at iteration #   357

     Writing output data file pwscf.save/
 
     init_run     :     25.44s CPU     28.30s WALL (       1 calls)
     electrons    : 153398.41s CPU 159994.16s WALL (       1 calls)

     Called by init_run:
     wfcinit      :     17.71s CPU     18.37s WALL (       1 calls)
     potinit      :      0.39s CPU      2.48s WALL (       1 calls)
     hinit0       :      4.02s CPU      4.05s WALL (       1 calls)

     Called by electrons:
     c_bands      : 131889.20s CPU 138113.36s WALL (     167 calls)
     sum_band     :  21425.82s CPU  21690.74s WALL (     167 calls)
     v_of_rho     :     19.06s CPU     19.98s WALL (     168 calls)
     mix_rho      :     53.97s CPU    112.07s WALL (     167 calls)

     Called by c_bands:
     init_us_2    :    240.89s CPU    266.87s WALL (    5352 calls)
     cegterg      : 131146.80s CPU 134723.71s WALL (    2664 calls)

     Called by sum_band:

     Called by *egterg:
     h_psi        :  91534.82s CPU  93290.35s WALL (    9980 calls)
     g_psi        :    177.35s CPU    181.39s WALL (    7316 calls)
     cdiaghg      :   3626.05s CPU   3741.20s WALL (    9980 calls)

     Called by h_psi:
     h_psi:pot    :  84448.64s CPU  85674.49s WALL (    9980 calls)
     h_psi:calbec :   4707.78s CPU   4791.42s WALL (    9980 calls)
     vloc_psi     :  75263.47s CPU  76316.91s WALL (    9980 calls)
     add_vuspsi   :   4477.19s CPU   4566.02s WALL (    9980 calls)
     vhpsi        :   6893.07s CPU   6982.50s WALL (    9980 calls)

     General routines
     calbec       :   6621.49s CPU   6732.18s WALL (   22648 calls)
     fft          :     27.72s CPU     28.16s WALL (     839 calls)
     ffts         :      8.94s CPU      9.05s WALL (     334 calls)
     fftw         :  79161.08s CPU  80169.11s WALL ( 6560134 calls)
     davcio       :      2.86s CPU   5333.15s WALL (      82 calls)
 
     Parallel routines
     fft_scatt_xy :  19066.07s CPU  19301.89s WALL ( 6561307 calls)
     fft_scatt_yz :  20645.71s CPU  20906.46s WALL ( 6561307 calls)

     Hubbard U routines
     new_ns       :    767.98s CPU    781.17s WALL (     167 calls)
     vhpsi        :   6893.07s CPU   6982.50s WALL (    9980 calls)
 
     PWSCF        :   1d18h37m CPU   1d21h19m WALL

 
   This run was terminated on:  15:39:12  15Oct2021            

=------------------------------------------------------------------------------=
   JOB DONE.
=------------------------------------------------------------------------------=
