
     Program PWSCF v.6.4.1 starts on 11Oct2021 at 11:44:16 

     This program is part of the open-source Quantum ESPRESSO suite
     for quantum simulation of materials; please cite
         "P. Giannozzi et al., J. Phys.:Condens. Matter 21 395502 (2009);
         "P. Giannozzi et al., J. Phys.:Condens. Matter 29 465901 (2017);
          URL http://www.quantum-espresso.org", 
     in publications or presentations arising from this work. More details at
     http://www.quantum-espresso.org/quote

     Parallel version (MPI & OpenMP), running on      36 processor cores
     Number of MPI processes:                36
     Threads/MPI process:                     1

     MPI processes distributed on     1 nodes
     R & G space division:  proc/nbgrp/npool/nimage =      36
     Reading input from scf.in

     Current dimensions of program PWSCF are:
     Max number of different atomic species (ntypx) = 10
     Max number of k-points (npk) =  40000
     Max angular momentum in pseudopotentials (lmaxx) =  3

     IMPORTANT: XC functional enforced from input :
     Exchange-correlation      = LDA ( 1  1  0  0 0 0)
     Any further DFT definition will be discarded
     Please, verify this is what you really want


     Subspace diagonalization in iterative solution of the eigenvalue problem:
     one sub-group per band group will be used
     scalapack distributed-memory algorithm (size of sub-group:  4*  4 procs)

 
     Parallelization info
     --------------------
     sticks:   dense  smooth     PW     G-vecs:    dense   smooth      PW
     Min        1125    1125    289               160176   160176   20844
     Max        1126    1126    290               160182   160182   20847
     Sum       40533   40533  10413              5766487  5766487  750431
 


     bravais-lattice index     =            0
     lattice parameter (alat)  =      18.3955  a.u.
     unit-cell volume          =    6518.7163 (a.u.)^3
     number of atoms/cell      =           80
     number of atomic types    =            5
     number of electrons       =       737.00
     number of Kohn-Sham states=          443
     kinetic-energy cutoff     =     350.0000  Ry
     charge density cutoff     =    1400.0000  Ry
     convergence threshold     =      1.0E-05
     mixing beta               =       0.2000
     number of iterations used =            8  plain     mixing
     Exchange-correlation      = LDA ( 1  1  0  0 0 0)

     celldm(1)=  18.395514  celldm(2)=   0.000000  celldm(3)=   0.000000
     celldm(4)=   0.000000  celldm(5)=   0.000000  celldm(6)=   0.000000

     crystal axes: (cart. coord. in units of alat)
               a(1) = (   1.000000   0.000000   0.000000 )  
               a(2) = (   0.333333   1.075078   0.000000 )  
               a(3) = (   0.166667  -0.082572   0.974062 )  

     reciprocal axes: (cart. coord. in units 2 pi/alat)
               b(1) = (  1.000000 -0.310055 -0.197388 )  
               b(2) = (  0.000000  0.930165  0.078850 )  
               b(3) = (  0.000000  0.000000  1.026629 )  


     PseudoPot. # 1 for Co read from file:
     ./Co.opt.upf
     MD5 check sum: cbea422ea0772e228e39f0fc3ccfb1ba
     Pseudo is Norm-conserving, Zval = 17.0
     Generated by new atomic code, or converted to UPF format
     Using radial grid of 1161 points,  2 beta functions with: 
                l(1) =   0
                l(2) =   2

     PseudoPot. # 2 for Co read from file:
     ./Co.opt.upf
     MD5 check sum: cbea422ea0772e228e39f0fc3ccfb1ba
     Pseudo is Norm-conserving, Zval = 17.0
     Generated by new atomic code, or converted to UPF format
     Using radial grid of 1161 points,  2 beta functions with: 
                l(1) =   0
                l(2) =   2

     PseudoPot. # 3 for La read from file:
     ./La.ropt1.upf
     MD5 check sum: afd03827907f86c9752dba134992df7c
     Pseudo is Norm-conserving, Zval = 11.0
     Generated by new atomic code, or converted to UPF format
     Using radial grid of 1180 points,  2 beta functions with: 
                l(1) =   0
                l(2) =   2

     PseudoPot. # 4 for Ni read from file:
     ./Ni.opt.upf
     MD5 check sum: b7edf10417f5f3caa9f11af4e9f0b2a2
     Pseudo is Norm-conserving, Zval = 18.0
     Generated by new atomic code, or converted to UPF format
     Using radial grid of 1162 points,  2 beta functions with: 
                l(1) =   0
                l(2) =   2

     PseudoPot. # 5 for O  read from file:
     ./O.opt.upf
     MD5 check sum: 0b670aeee1f35195f09134313df81f8f
     Pseudo is Norm-conserving, Zval =  6.0
     Generated by new atomic code, or converted to UPF format
     Using radial grid of 1130 points,  1 beta functions with: 
                l(1) =   1

     atomic species   valence    mass     pseudopotential
        Co1           17.00    58.93300     Co( 1.00)
        Co2           17.00    58.93300     Co( 1.00)
        La            11.00   138.92000     La( 1.00)
        Ni            18.00    58.69000     Ni( 1.00)
        O              6.00    15.99900     O ( 1.00)

     Starting magnetic structure 
     atomic species   magnetization
        Co1          0.500
        Co2         -0.500
        La           0.000
        Ni          -0.500
        O            0.000


     Simplified LDA+U calculation (l_max = 2) with parameters (eV):
     atomic species    L          U    alpha       J0     beta
        Co1            2     6.0000   0.0000   0.0000   0.0000
        Co2            2     6.0000   0.0000   0.0000   0.0000
        Ni             2     4.0000   0.0000   0.0000   0.0000



     No symmetry found



   Cartesian axes

     site n.     atom                  positions (alat units)
         1           La  tau(   1) = (   1.0000000   0.2868835   0.1826366  )
         2           La  tau(   2) = (   1.0000000  -0.0231717   0.6696675  )
         3           La  tau(   3) = (   0.6666667   0.3593395   0.9131830  )
         4           La  tau(   4) = (   1.1666667   0.8244222   0.1826366  )
         5           La  tau(   5) = (   1.1666667   0.5143671   0.6696675  )
         6           La  tau(   6) = (   0.8333333   0.8968783   0.9131830  )
         7           La  tau(   7) = (   0.6666667   0.6693947   0.4261521  )
         8           La  tau(   8) = (   0.5000000   0.1318558   0.4261521  )
         9           La  tau(   9) = (   1.0000000   0.8606501   0.5479098  )
        10           La  tau(  10) = (   0.8333333   0.6331666   0.0608789  )
        11           La  tau(  11) = (   0.5000000   1.0156777   0.3043943  )
        12           La  tau(  12) = (   0.8333333   0.3231114   0.5479098  )
        13           La  tau(  13) = (   0.6666667   0.0956278   0.0608789  )
        14           La  tau(  14) = (   0.3333333   0.4781390   0.3043943  )
        15           La  tau(  15) = (   0.3333333   0.1680839   0.7914253  )
        16           La  tau(  16) = (   0.5000000   0.7056226   0.7914253  )
        17           Co1 tau(  17) = (   1.0000000   0.5737668   0.3652732  )
        18           Co1 tau(  18) = (   1.0000000   0.2637117   0.8523041  )
        19           Co1 tau(  19) = (   0.5000000   0.7287944   0.1217577  )
        20           Co1 tau(  20) = (   0.8333333   0.0362280   0.3652732  )
        21           Co1 tau(  21) = (   1.1666666   0.8012504   0.8523041  )
        22           Co1 tau(  22) = (   0.3333333   0.1912556   0.1217577  )
        23           Co1 tau(  23) = (   0.6666666   0.9562780   0.6087887  )
        24           Co1 tau(  24) = (   0.5000000   0.4187392   0.6087887  )
        25           Co2 tau(  25) = (   0.0000000   0.0000000   0.0000000  )
        26           Co2 tau(  26) = (   0.3333333   0.7650224   0.4870309  )
        27           Co2 tau(  27) = (   0.6666667   0.0724561   0.7305464  )
        28           Co2 tau(  28) = (   0.1666667   0.5375388   0.0000000  )
        29           Co2 tau(  29) = (   0.1666667   0.2274836   0.4870309  )
        30           Co2 tau(  30) = (   0.8333333   0.6099948   0.7305464  )
        31           Co2 tau(  31) = (   0.6666667   0.3825112   0.2435155  )
        32           Ni  tau(  32) = (   0.8333333   0.9200500   0.2435155  )
        33           O   tau(  33) = (   1.0491919   0.5662381   0.1660092  )
        34           O   tau(  34) = (   1.0491919   0.2561830   0.6530401  )
        35           O   tau(  35) = (   0.7158585   0.6386942   0.8965556  )
        36           O   tau(  36) = (   0.8825252   0.0286993   0.1660092  )
        37           O   tau(  37) = (   1.2158585   0.7937217   0.6530401  )
        38           O   tau(  38) = (   0.5491919   0.1011554   0.8965556  )
        39           O   tau(  39) = (   0.7158585   0.9487493   0.4095247  )
        40           O   tau(  40) = (   0.5491919   0.4112105   0.4095247  )
        41           O   tau(  41) = (   0.9508081   0.5812955   0.5645372  )
        42           O   tau(  42) = (   0.7841414   0.3538119   0.0775063  )
        43           O   tau(  43) = (   0.4508081   0.7363230   0.3210217  )
        44           O   tau(  44) = (   0.7841414   0.0437567   0.5645372  )
        45           O   tau(  45) = (   0.9508081   0.8913506   0.0775063  )
        46           O   tau(  46) = (   0.2841414   0.1987843   0.3210217  )
        47           O   tau(  47) = (   0.6174748   0.9638067   0.8080527  )
        48           O   tau(  48) = (   0.4508081   0.4262679   0.8080527  )
        49           O   tau(  49) = (   1.1174742   0.4112111   0.4095238  )
        50           O   tau(  50) = (   1.1174742   0.1011560   0.8965548  )
        51           O   tau(  51) = (   0.6174741   0.5662387   0.1660084  )
        52           O   tau(  52) = (   1.2841409   0.9487499   0.4095238  )
        53           O   tau(  53) = (   1.2841409   0.6386947   0.8965548  )
        54           O   tau(  54) = (   0.4508075   0.0286999   0.1660084  )
        55           O   tau(  55) = (   0.7841408   0.7937223   0.6530393  )
        56           O   tau(  56) = (   0.6174741   0.2561835   0.6530393  )
        57           O   tau(  57) = (   0.8825258   0.7363225   0.3210225  )
        58           O   tau(  58) = (   0.8825258   0.4262673   0.8080535  )
        59           O   tau(  59) = (   0.3825258   0.8913500   0.0775071  )
        60           O   tau(  60) = (   0.7158592   0.1987837   0.3210225  )
        61           O   tau(  61) = (   1.0491925   0.9638061   0.8080535  )
        62           O   tau(  62) = (   0.2158592   0.3538113   0.0775071  )
        63           O   tau(  63) = (   0.2158592   0.0437561   0.5645380  )
        64           O   tau(  64) = (   0.3825258   0.5812949   0.5645380  )
        65           O   tau(  65) = (   0.8333339   0.4569677   0.3376499  )
        66           O   tau(  66) = (   0.8333339   0.1469125   0.8246808  )
        67           O   tau(  67) = (   0.3333339   0.6119952   0.0941344  )
        68           O   tau(  68) = (   1.0000005   0.9945064   0.3376499  )
        69           O   tau(  69) = (   1.0000005   0.6844513   0.8246808  )
        70           O   tau(  70) = (   0.1666672   0.0744564   0.0941344  )
        71           O   tau(  71) = (   0.5000005   0.8394788   0.5811654  )
        72           O   tau(  72) = (   0.3333339   0.3019401   0.5811654  )
        73           O   tau(  73) = (   1.1666660   0.6905658   0.3928965  )
        74           O   tau(  74) = (   1.1666660   0.3805107   0.8799274  )
        75           O   tau(  75) = (   0.6666661   0.8455934   0.1493811  )
        76           O   tau(  76) = (   0.9999994   0.1530271   0.3928965  )
        77           O   tau(  77) = (   1.3333327   0.9180494   0.8799274  )
        78           O   tau(  78) = (   0.4999994   0.3080546   0.1493811  )
        79           O   tau(  79) = (   0.4999994  -0.0020005   0.6364120  )
        80           O   tau(  80) = (   0.6666660   0.5355382   0.6364120  )

     number of k points=     8  Methfessel-Paxton smearing, width (Ry)=  0.0100
                       cart. coord. in units 2pi/alat
        k(    1) = (   0.5000000   0.3100552   0.4540455), wk =   0.1250000
        k(    2) = (   0.0000000   0.4650827   0.5527396), wk =   0.1250000
        k(    3) = (   0.5000000  -0.1550276   0.4146203), wk =   0.1250000
        k(    4) = (   0.0000000   0.0000000   0.5133144), wk =   0.1250000
        k(    5) = (   0.5000000   0.3100552  -0.0592689), wk =   0.1250000
        k(    6) = (   0.0000000   0.4650827   0.0394252), wk =   0.1250000
        k(    7) = (   0.5000000  -0.1550276  -0.0986941), wk =   0.1250000
        k(    8) = (   0.0000000   0.0000000   0.0000000), wk =   0.1250000

     Dense  grid:  5766487 G-vectors     FFT dimensions: ( 225, 250, 225)

     Estimated max dynamical RAM per process >       4.00 GB

     Estimated total dynamical RAM >     144.01 GB
     Generating pointlists ...
     new r_m :   0.0847 (alat units)  1.5585 (a.u.) for type    1
     new r_m :   0.0847 (alat units)  1.5585 (a.u.) for type    2
     new r_m :   0.1028 (alat units)  1.8914 (a.u.) for type    3
     new r_m :   0.0847 (alat units)  1.5585 (a.u.) for type    4
     new r_m :   0.0847 (alat units)  1.5585 (a.u.) for type    5

     Initial potential from superposition of free atoms

     starting charge  624.99994, renormalised to  737.00000
     Number of +U iterations with fixed ns =  0
     Starting occupations:
 --- enter write_ns ---
 LDA+U parameters:
U( 1)     =  6.00000000
alpha( 1) =  0.00000000
U( 2)     =  6.00000000
alpha( 2) =  0.00000000
U( 4)     =  4.00000000
alpha( 4) =  0.00000000
atom   17   Tr[ns(na)] (up, down, total) =   5.00000  2.00000  7.00000
   spin  1
    eigenvalues: 
  1.000  1.000  1.000  1.000  1.000
    eigenvectors:
  1.000  0.000  0.000  0.000  0.000
  0.000  1.000  0.000  0.000  0.000
  0.000  0.000  1.000  0.000  0.000
  0.000  0.000  0.000  1.000  0.000
  0.000  0.000  0.000  0.000  1.000
    occupations:
  1.000  0.000  0.000  0.000  0.000
  0.000  1.000  0.000  0.000  0.000
  0.000  0.000  1.000  0.000  0.000
  0.000  0.000  0.000  1.000  0.000
  0.000  0.000  0.000  0.000  1.000
   spin  2
    eigenvalues: 
  0.400  0.400  0.400  0.400  0.400
    eigenvectors:
  1.000  0.000  0.000  0.000  0.000
  0.000  1.000  0.000  0.000  0.000
  0.000  0.000  1.000  0.000  0.000
  0.000  0.000  0.000  1.000  0.000
  0.000  0.000  0.000  0.000  1.000
    occupations:
  0.400  0.000  0.000  0.000  0.000
  0.000  0.400  0.000  0.000  0.000
  0.000  0.000  0.400  0.000  0.000
  0.000  0.000  0.000  0.400  0.000
  0.000  0.000  0.000  0.000  0.400
atomic mag. moment =     3.000000
atom   18   Tr[ns(na)] (up, down, total) =   5.00000  2.00000  7.00000
   spin  1
    eigenvalues: 
  1.000  1.000  1.000  1.000  1.000
    eigenvectors:
  1.000  0.000  0.000  0.000  0.000
  0.000  1.000  0.000  0.000  0.000
  0.000  0.000  1.000  0.000  0.000
  0.000  0.000  0.000  1.000  0.000
  0.000  0.000  0.000  0.000  1.000
    occupations:
  1.000  0.000  0.000  0.000  0.000
  0.000  1.000  0.000  0.000  0.000
  0.000  0.000  1.000  0.000  0.000
  0.000  0.000  0.000  1.000  0.000
  0.000  0.000  0.000  0.000  1.000
   spin  2
    eigenvalues: 
  0.400  0.400  0.400  0.400  0.400
    eigenvectors:
  1.000  0.000  0.000  0.000  0.000
  0.000  1.000  0.000  0.000  0.000
  0.000  0.000  1.000  0.000  0.000
  0.000  0.000  0.000  1.000  0.000
  0.000  0.000  0.000  0.000  1.000
    occupations:
  0.400  0.000  0.000  0.000  0.000
  0.000  0.400  0.000  0.000  0.000
  0.000  0.000  0.400  0.000  0.000
  0.000  0.000  0.000  0.400  0.000
  0.000  0.000  0.000  0.000  0.400
atomic mag. moment =     3.000000
atom   19   Tr[ns(na)] (up, down, total) =   5.00000  2.00000  7.00000
   spin  1
    eigenvalues: 
  1.000  1.000  1.000  1.000  1.000
    eigenvectors:
  1.000  0.000  0.000  0.000  0.000
  0.000  1.000  0.000  0.000  0.000
  0.000  0.000  1.000  0.000  0.000
  0.000  0.000  0.000  1.000  0.000
  0.000  0.000  0.000  0.000  1.000
    occupations:
  1.000  0.000  0.000  0.000  0.000
  0.000  1.000  0.000  0.000  0.000
  0.000  0.000  1.000  0.000  0.000
  0.000  0.000  0.000  1.000  0.000
  0.000  0.000  0.000  0.000  1.000
   spin  2
    eigenvalues: 
  0.400  0.400  0.400  0.400  0.400
    eigenvectors:
  1.000  0.000  0.000  0.000  0.000
  0.000  1.000  0.000  0.000  0.000
  0.000  0.000  1.000  0.000  0.000
  0.000  0.000  0.000  1.000  0.000
  0.000  0.000  0.000  0.000  1.000
    occupations:
  0.400  0.000  0.000  0.000  0.000
  0.000  0.400  0.000  0.000  0.000
  0.000  0.000  0.400  0.000  0.000
  0.000  0.000  0.000  0.400  0.000
  0.000  0.000  0.000  0.000  0.400
atomic mag. moment =     3.000000
atom   20   Tr[ns(na)] (up, down, total) =   5.00000  2.00000  7.00000
   spin  1
    eigenvalues: 
  1.000  1.000  1.000  1.000  1.000
    eigenvectors:
  1.000  0.000  0.000  0.000  0.000
  0.000  1.000  0.000  0.000  0.000
  0.000  0.000  1.000  0.000  0.000
  0.000  0.000  0.000  1.000  0.000
  0.000  0.000  0.000  0.000  1.000
    occupations:
  1.000  0.000  0.000  0.000  0.000
  0.000  1.000  0.000  0.000  0.000
  0.000  0.000  1.000  0.000  0.000
  0.000  0.000  0.000  1.000  0.000
  0.000  0.000  0.000  0.000  1.000
   spin  2
    eigenvalues: 
  0.400  0.400  0.400  0.400  0.400
    eigenvectors:
  1.000  0.000  0.000  0.000  0.000
  0.000  1.000  0.000  0.000  0.000
  0.000  0.000  1.000  0.000  0.000
  0.000  0.000  0.000  1.000  0.000
  0.000  0.000  0.000  0.000  1.000
    occupations:
  0.400  0.000  0.000  0.000  0.000
  0.000  0.400  0.000  0.000  0.000
  0.000  0.000  0.400  0.000  0.000
  0.000  0.000  0.000  0.400  0.000
  0.000  0.000  0.000  0.000  0.400
atomic mag. moment =     3.000000
atom   21   Tr[ns(na)] (up, down, total) =   5.00000  2.00000  7.00000
   spin  1
    eigenvalues: 
  1.000  1.000  1.000  1.000  1.000
    eigenvectors:
  1.000  0.000  0.000  0.000  0.000
  0.000  1.000  0.000  0.000  0.000
  0.000  0.000  1.000  0.000  0.000
  0.000  0.000  0.000  1.000  0.000
  0.000  0.000  0.000  0.000  1.000
    occupations:
  1.000  0.000  0.000  0.000  0.000
  0.000  1.000  0.000  0.000  0.000
  0.000  0.000  1.000  0.000  0.000
  0.000  0.000  0.000  1.000  0.000
  0.000  0.000  0.000  0.000  1.000
   spin  2
    eigenvalues: 
  0.400  0.400  0.400  0.400  0.400
    eigenvectors:
  1.000  0.000  0.000  0.000  0.000
  0.000  1.000  0.000  0.000  0.000
  0.000  0.000  1.000  0.000  0.000
  0.000  0.000  0.000  1.000  0.000
  0.000  0.000  0.000  0.000  1.000
    occupations:
  0.400  0.000  0.000  0.000  0.000
  0.000  0.400  0.000  0.000  0.000
  0.000  0.000  0.400  0.000  0.000
  0.000  0.000  0.000  0.400  0.000
  0.000  0.000  0.000  0.000  0.400
atomic mag. moment =     3.000000
atom   22   Tr[ns(na)] (up, down, total) =   5.00000  2.00000  7.00000
   spin  1
    eigenvalues: 
  1.000  1.000  1.000  1.000  1.000
    eigenvectors:
  1.000  0.000  0.000  0.000  0.000
  0.000  1.000  0.000  0.000  0.000
  0.000  0.000  1.000  0.000  0.000
  0.000  0.000  0.000  1.000  0.000
  0.000  0.000  0.000  0.000  1.000
    occupations:
  1.000  0.000  0.000  0.000  0.000
  0.000  1.000  0.000  0.000  0.000
  0.000  0.000  1.000  0.000  0.000
  0.000  0.000  0.000  1.000  0.000
  0.000  0.000  0.000  0.000  1.000
   spin  2
    eigenvalues: 
  0.400  0.400  0.400  0.400  0.400
    eigenvectors:
  1.000  0.000  0.000  0.000  0.000
  0.000  1.000  0.000  0.000  0.000
  0.000  0.000  1.000  0.000  0.000
  0.000  0.000  0.000  1.000  0.000
  0.000  0.000  0.000  0.000  1.000
    occupations:
  0.400  0.000  0.000  0.000  0.000
  0.000  0.400  0.000  0.000  0.000
  0.000  0.000  0.400  0.000  0.000
  0.000  0.000  0.000  0.400  0.000
  0.000  0.000  0.000  0.000  0.400
atomic mag. moment =     3.000000
atom   23   Tr[ns(na)] (up, down, total) =   5.00000  2.00000  7.00000
   spin  1
    eigenvalues: 
  1.000  1.000  1.000  1.000  1.000
    eigenvectors:
  1.000  0.000  0.000  0.000  0.000
  0.000  1.000  0.000  0.000  0.000
  0.000  0.000  1.000  0.000  0.000
  0.000  0.000  0.000  1.000  0.000
  0.000  0.000  0.000  0.000  1.000
    occupations:
  1.000  0.000  0.000  0.000  0.000
  0.000  1.000  0.000  0.000  0.000
  0.000  0.000  1.000  0.000  0.000
  0.000  0.000  0.000  1.000  0.000
  0.000  0.000  0.000  0.000  1.000
   spin  2
    eigenvalues: 
  0.400  0.400  0.400  0.400  0.400
    eigenvectors:
  1.000  0.000  0.000  0.000  0.000
  0.000  1.000  0.000  0.000  0.000
  0.000  0.000  1.000  0.000  0.000
  0.000  0.000  0.000  1.000  0.000
  0.000  0.000  0.000  0.000  1.000
    occupations:
  0.400  0.000  0.000  0.000  0.000
  0.000  0.400  0.000  0.000  0.000
  0.000  0.000  0.400  0.000  0.000
  0.000  0.000  0.000  0.400  0.000
  0.000  0.000  0.000  0.000  0.400
atomic mag. moment =     3.000000
atom   24   Tr[ns(na)] (up, down, total) =   5.00000  2.00000  7.00000
   spin  1
    eigenvalues: 
  1.000  1.000  1.000  1.000  1.000
    eigenvectors:
  1.000  0.000  0.000  0.000  0.000
  0.000  1.000  0.000  0.000  0.000
  0.000  0.000  1.000  0.000  0.000
  0.000  0.000  0.000  1.000  0.000
  0.000  0.000  0.000  0.000  1.000
    occupations:
  1.000  0.000  0.000  0.000  0.000
  0.000  1.000  0.000  0.000  0.000
  0.000  0.000  1.000  0.000  0.000
  0.000  0.000  0.000  1.000  0.000
  0.000  0.000  0.000  0.000  1.000
   spin  2
    eigenvalues: 
  0.400  0.400  0.400  0.400  0.400
    eigenvectors:
  1.000  0.000  0.000  0.000  0.000
  0.000  1.000  0.000  0.000  0.000
  0.000  0.000  1.000  0.000  0.000
  0.000  0.000  0.000  1.000  0.000
  0.000  0.000  0.000  0.000  1.000
    occupations:
  0.400  0.000  0.000  0.000  0.000
  0.000  0.400  0.000  0.000  0.000
  0.000  0.000  0.400  0.000  0.000
  0.000  0.000  0.000  0.400  0.000
  0.000  0.000  0.000  0.000  0.400
atomic mag. moment =     3.000000
atom   25   Tr[ns(na)] (up, down, total) =   2.00000  5.00000  7.00000
   spin  1
    eigenvalues: 
  0.400  0.400  0.400  0.400  0.400
    eigenvectors:
  1.000  0.000  0.000  0.000  0.000
  0.000  1.000  0.000  0.000  0.000
  0.000  0.000  1.000  0.000  0.000
  0.000  0.000  0.000  1.000  0.000
  0.000  0.000  0.000  0.000  1.000
    occupations:
  0.400  0.000  0.000  0.000  0.000
  0.000  0.400  0.000  0.000  0.000
  0.000  0.000  0.400  0.000  0.000
  0.000  0.000  0.000  0.400  0.000
  0.000  0.000  0.000  0.000  0.400
   spin  2
    eigenvalues: 
  1.000  1.000  1.000  1.000  1.000
    eigenvectors:
  1.000  0.000  0.000  0.000  0.000
  0.000  1.000  0.000  0.000  0.000
  0.000  0.000  1.000  0.000  0.000
  0.000  0.000  0.000  1.000  0.000
  0.000  0.000  0.000  0.000  1.000
    occupations:
  1.000  0.000  0.000  0.000  0.000
  0.000  1.000  0.000  0.000  0.000
  0.000  0.000  1.000  0.000  0.000
  0.000  0.000  0.000  1.000  0.000
  0.000  0.000  0.000  0.000  1.000
atomic mag. moment =    -3.000000
atom   26   Tr[ns(na)] (up, down, total) =   2.00000  5.00000  7.00000
   spin  1
    eigenvalues: 
  0.400  0.400  0.400  0.400  0.400
    eigenvectors:
  1.000  0.000  0.000  0.000  0.000
  0.000  1.000  0.000  0.000  0.000
  0.000  0.000  1.000  0.000  0.000
  0.000  0.000  0.000  1.000  0.000
  0.000  0.000  0.000  0.000  1.000
    occupations:
  0.400  0.000  0.000  0.000  0.000
  0.000  0.400  0.000  0.000  0.000
  0.000  0.000  0.400  0.000  0.000
  0.000  0.000  0.000  0.400  0.000
  0.000  0.000  0.000  0.000  0.400
   spin  2
    eigenvalues: 
  1.000  1.000  1.000  1.000  1.000
    eigenvectors:
  1.000  0.000  0.000  0.000  0.000
  0.000  1.000  0.000  0.000  0.000
  0.000  0.000  1.000  0.000  0.000
  0.000  0.000  0.000  1.000  0.000
  0.000  0.000  0.000  0.000  1.000
    occupations:
  1.000  0.000  0.000  0.000  0.000
  0.000  1.000  0.000  0.000  0.000
  0.000  0.000  1.000  0.000  0.000
  0.000  0.000  0.000  1.000  0.000
  0.000  0.000  0.000  0.000  1.000
atomic mag. moment =    -3.000000
atom   27   Tr[ns(na)] (up, down, total) =   2.00000  5.00000  7.00000
   spin  1
    eigenvalues: 
  0.400  0.400  0.400  0.400  0.400
    eigenvectors:
  1.000  0.000  0.000  0.000  0.000
  0.000  1.000  0.000  0.000  0.000
  0.000  0.000  1.000  0.000  0.000
  0.000  0.000  0.000  1.000  0.000
  0.000  0.000  0.000  0.000  1.000
    occupations:
  0.400  0.000  0.000  0.000  0.000
  0.000  0.400  0.000  0.000  0.000
  0.000  0.000  0.400  0.000  0.000
  0.000  0.000  0.000  0.400  0.000
  0.000  0.000  0.000  0.000  0.400
   spin  2
    eigenvalues: 
  1.000  1.000  1.000  1.000  1.000
    eigenvectors:
  1.000  0.000  0.000  0.000  0.000
  0.000  1.000  0.000  0.000  0.000
  0.000  0.000  1.000  0.000  0.000
  0.000  0.000  0.000  1.000  0.000
  0.000  0.000  0.000  0.000  1.000
    occupations:
  1.000  0.000  0.000  0.000  0.000
  0.000  1.000  0.000  0.000  0.000
  0.000  0.000  1.000  0.000  0.000
  0.000  0.000  0.000  1.000  0.000
  0.000  0.000  0.000  0.000  1.000
atomic mag. moment =    -3.000000
atom   28   Tr[ns(na)] (up, down, total) =   2.00000  5.00000  7.00000
   spin  1
    eigenvalues: 
  0.400  0.400  0.400  0.400  0.400
    eigenvectors:
  1.000  0.000  0.000  0.000  0.000
  0.000  1.000  0.000  0.000  0.000
  0.000  0.000  1.000  0.000  0.000
  0.000  0.000  0.000  1.000  0.000
  0.000  0.000  0.000  0.000  1.000
    occupations:
  0.400  0.000  0.000  0.000  0.000
  0.000  0.400  0.000  0.000  0.000
  0.000  0.000  0.400  0.000  0.000
  0.000  0.000  0.000  0.400  0.000
  0.000  0.000  0.000  0.000  0.400
   spin  2
    eigenvalues: 
  1.000  1.000  1.000  1.000  1.000
    eigenvectors:
  1.000  0.000  0.000  0.000  0.000
  0.000  1.000  0.000  0.000  0.000
  0.000  0.000  1.000  0.000  0.000
  0.000  0.000  0.000  1.000  0.000
  0.000  0.000  0.000  0.000  1.000
    occupations:
  1.000  0.000  0.000  0.000  0.000
  0.000  1.000  0.000  0.000  0.000
  0.000  0.000  1.000  0.000  0.000
  0.000  0.000  0.000  1.000  0.000
  0.000  0.000  0.000  0.000  1.000
atomic mag. moment =    -3.000000
atom   29   Tr[ns(na)] (up, down, total) =   2.00000  5.00000  7.00000
   spin  1
    eigenvalues: 
  0.400  0.400  0.400  0.400  0.400
    eigenvectors:
  1.000  0.000  0.000  0.000  0.000
  0.000  1.000  0.000  0.000  0.000
  0.000  0.000  1.000  0.000  0.000
  0.000  0.000  0.000  1.000  0.000
  0.000  0.000  0.000  0.000  1.000
    occupations:
  0.400  0.000  0.000  0.000  0.000
  0.000  0.400  0.000  0.000  0.000
  0.000  0.000  0.400  0.000  0.000
  0.000  0.000  0.000  0.400  0.000
  0.000  0.000  0.000  0.000  0.400
   spin  2
    eigenvalues: 
  1.000  1.000  1.000  1.000  1.000
    eigenvectors:
  1.000  0.000  0.000  0.000  0.000
  0.000  1.000  0.000  0.000  0.000
  0.000  0.000  1.000  0.000  0.000
  0.000  0.000  0.000  1.000  0.000
  0.000  0.000  0.000  0.000  1.000
    occupations:
  1.000  0.000  0.000  0.000  0.000
  0.000  1.000  0.000  0.000  0.000
  0.000  0.000  1.000  0.000  0.000
  0.000  0.000  0.000  1.000  0.000
  0.000  0.000  0.000  0.000  1.000
atomic mag. moment =    -3.000000
atom   30   Tr[ns(na)] (up, down, total) =   2.00000  5.00000  7.00000
   spin  1
    eigenvalues: 
  0.400  0.400  0.400  0.400  0.400
    eigenvectors:
  1.000  0.000  0.000  0.000  0.000
  0.000  1.000  0.000  0.000  0.000
  0.000  0.000  1.000  0.000  0.000
  0.000  0.000  0.000  1.000  0.000
  0.000  0.000  0.000  0.000  1.000
    occupations:
  0.400  0.000  0.000  0.000  0.000
  0.000  0.400  0.000  0.000  0.000
  0.000  0.000  0.400  0.000  0.000
  0.000  0.000  0.000  0.400  0.000
  0.000  0.000  0.000  0.000  0.400
   spin  2
    eigenvalues: 
  1.000  1.000  1.000  1.000  1.000
    eigenvectors:
  1.000  0.000  0.000  0.000  0.000
  0.000  1.000  0.000  0.000  0.000
  0.000  0.000  1.000  0.000  0.000
  0.000  0.000  0.000  1.000  0.000
  0.000  0.000  0.000  0.000  1.000
    occupations:
  1.000  0.000  0.000  0.000  0.000
  0.000  1.000  0.000  0.000  0.000
  0.000  0.000  1.000  0.000  0.000
  0.000  0.000  0.000  1.000  0.000
  0.000  0.000  0.000  0.000  1.000
atomic mag. moment =    -3.000000
atom   31   Tr[ns(na)] (up, down, total) =   2.00000  5.00000  7.00000
   spin  1
    eigenvalues: 
  0.400  0.400  0.400  0.400  0.400
    eigenvectors:
  1.000  0.000  0.000  0.000  0.000
  0.000  1.000  0.000  0.000  0.000
  0.000  0.000  1.000  0.000  0.000
  0.000  0.000  0.000  1.000  0.000
  0.000  0.000  0.000  0.000  1.000
    occupations:
  0.400  0.000  0.000  0.000  0.000
  0.000  0.400  0.000  0.000  0.000
  0.000  0.000  0.400  0.000  0.000
  0.000  0.000  0.000  0.400  0.000
  0.000  0.000  0.000  0.000  0.400
   spin  2
    eigenvalues: 
  1.000  1.000  1.000  1.000  1.000
    eigenvectors:
  1.000  0.000  0.000  0.000  0.000
  0.000  1.000  0.000  0.000  0.000
  0.000  0.000  1.000  0.000  0.000
  0.000  0.000  0.000  1.000  0.000
  0.000  0.000  0.000  0.000  1.000
    occupations:
  1.000  0.000  0.000  0.000  0.000
  0.000  1.000  0.000  0.000  0.000
  0.000  0.000  1.000  0.000  0.000
  0.000  0.000  0.000  1.000  0.000
  0.000  0.000  0.000  0.000  1.000
atomic mag. moment =    -3.000000
atom   32   Tr[ns(na)] (up, down, total) =   3.00000  5.00000  8.00000
   spin  1
    eigenvalues: 
  0.600  0.600  0.600  0.600  0.600
    eigenvectors:
  1.000  0.000  0.000  0.000  0.000
  0.000  1.000  0.000  0.000  0.000
  0.000  0.000  1.000  0.000  0.000
  0.000  0.000  0.000  1.000  0.000
  0.000  0.000  0.000  0.000  1.000
    occupations:
  0.600  0.000  0.000  0.000  0.000
  0.000  0.600  0.000  0.000  0.000
  0.000  0.000  0.600  0.000  0.000
  0.000  0.000  0.000  0.600  0.000
  0.000  0.000  0.000  0.000  0.600
   spin  2
    eigenvalues: 
  1.000  1.000  1.000  1.000  1.000
    eigenvectors:
  1.000  0.000  0.000  0.000  0.000
  0.000  1.000  0.000  0.000  0.000
  0.000  0.000  1.000  0.000  0.000
  0.000  0.000  0.000  1.000  0.000
  0.000  0.000  0.000  0.000  1.000
    occupations:
  1.000  0.000  0.000  0.000  0.000
  0.000  1.000  0.000  0.000  0.000
  0.000  0.000  1.000  0.000  0.000
  0.000  0.000  0.000  1.000  0.000
  0.000  0.000  0.000  0.000  1.000
atomic mag. moment =    -2.000000
N of occupied +U levels =  113.000000
 --- exit write_ns ---
 Atomic wfc used for LDA+U Projector are NOT orthogonalized
     Starting wfcs are  480 randomized atomic wfcs

     total cpu time spent up to now is      346.5 secs

     Self-consistent Calculation

     iteration #  1     ecut=   350.00 Ry     beta= 0.20
     Davidson diagonalization with overlap
     ethr =  1.00E-02,  avg # of iterations =  4.2
 --- enter write_ns ---
 LDA+U parameters:
U( 1)     =  6.00000000
alpha( 1) =  0.00000000
U( 2)     =  6.00000000
alpha( 2) =  0.00000000
U( 4)     =  4.00000000
alpha( 4) =  0.00000000
atom   17   Tr[ns(na)] (up, down, total) =   1.74825  0.15951  1.90776
   spin  1
    eigenvalues: 
  0.149  0.152  0.467  0.487  0.492
    eigenvectors:
  0.674  0.184  0.005  0.042  0.095
  0.090  0.050  0.000  0.194  0.667
  0.002  0.055  0.751  0.132  0.060
  0.022  0.064  0.240  0.514  0.161
  0.212  0.648  0.004  0.118  0.018
    occupations:
  0.198 -0.116  0.019  0.004  0.012
 -0.116  0.444  0.014 -0.006 -0.013
  0.019  0.014  0.454  0.013  0.070
  0.004 -0.006  0.013  0.455 -0.092
  0.012 -0.013  0.070 -0.092  0.199
   spin  2
    eigenvalues: 
  0.018  0.019  0.021  0.050  0.051
    eigenvectors:
  0.153  0.056  0.002  0.625  0.164
  0.439  0.357  0.003  0.155  0.045
  0.122  0.147  0.645  0.002  0.084
  0.203  0.329  0.349  0.020  0.099
  0.083  0.112  0.000  0.197  0.607
    occupations:
  0.044  0.013 -0.003  0.001 -0.001
  0.013  0.025 -0.001  0.000 -0.000
 -0.003 -0.001  0.023 -0.002 -0.008
  0.001  0.000 -0.002  0.023  0.010
 -0.001 -0.000 -0.008  0.010  0.044
atomic mag. moment =     1.588743
atom   18   Tr[ns(na)] (up, down, total) =   1.83437  0.17552  2.00989
   spin  1
    eigenvalues: 
  0.152  0.152  0.493  0.519  0.519
    eigenvectors:
  0.264  0.588  0.003  0.023  0.122
  0.025  0.121  0.001  0.081  0.771
  0.025  0.035  0.747  0.173  0.021
  0.066  0.024  0.245  0.584  0.081
  0.620  0.232  0.003  0.139  0.005
    occupations:
  0.206 -0.128  0.021  0.004  0.013
 -0.128  0.466  0.014 -0.006 -0.016
  0.021  0.014  0.478  0.015  0.078
  0.004 -0.006  0.015  0.480 -0.102
  0.013 -0.016  0.078 -0.102  0.206
   spin  2
    eigenvalues: 
  0.021  0.022  0.032  0.050  0.050
    eigenvectors:
  0.035  0.185  0.002  0.405  0.373
  0.280  0.509  0.000  0.114  0.097
  0.223  0.096  0.591  0.070  0.021
  0.319  0.143  0.406  0.074  0.058
  0.143  0.068  0.000  0.338  0.451
    occupations:
  0.044  0.012 -0.002  0.001 -0.001
  0.012  0.028 -0.001  0.001 -0.000
 -0.002 -0.001  0.030  0.002 -0.007
  0.001  0.001  0.002  0.029  0.009
 -0.001 -0.000 -0.007  0.009  0.044
atomic mag. moment =     1.658845
atom   19   Tr[ns(na)] (up, down, total) =   1.74681  0.15905  1.90586
   spin  1
    eigenvalues: 
  0.149  0.152  0.464  0.487  0.495
    eigenvectors:
  0.598  0.259  0.001  0.078  0.064
  0.118  0.023  0.017  0.538  0.304
  0.034  0.024  0.761  0.036  0.146
  0.022  0.062  0.218  0.318  0.380
  0.228  0.633  0.004  0.030  0.106
    occupations:
  0.199 -0.117  0.022  0.003  0.011
 -0.117  0.442  0.010 -0.004 -0.017
  0.022  0.010  0.451  0.011  0.071
  0.003 -0.004  0.011  0.457 -0.093
  0.011 -0.017  0.071 -0.093  0.199
   spin  2
    eigenvalues: 
  0.018  0.019  0.021  0.050  0.051
    eigenvectors:
  0.005  0.199  0.006  0.554  0.235
  0.112  0.690  0.000  0.148  0.051
  0.248  0.019  0.650  0.052  0.031
  0.467  0.066  0.344  0.044  0.078
  0.168  0.026  0.000  0.201  0.605
    occupations:
  0.044  0.013 -0.002  0.001 -0.002
  0.013  0.025 -0.002  0.001 -0.000
 -0.002 -0.002  0.023 -0.002 -0.008
  0.001  0.001 -0.002  0.023  0.010
 -0.002 -0.000 -0.008  0.010  0.044
atomic mag. moment =     1.587751
atom   20   Tr[ns(na)] (up, down, total) =   1.74696  0.15907  1.90603
   spin  1
    eigenvalues: 
  0.149  0.152  0.464  0.488  0.495
    eigenvectors:
  0.598  0.258  0.001  0.077  0.066
  0.118  0.023  0.017  0.530  0.313
  0.034  0.024  0.765  0.036  0.141
  0.022  0.062  0.214  0.326  0.375
  0.227  0.633  0.004  0.031  0.105
    occupations:
  0.199 -0.117  0.022  0.003  0.011
 -0.117  0.442  0.010 -0.004 -0.017
  0.022  0.010  0.451  0.011  0.071
  0.003 -0.004  0.011  0.457 -0.093
  0.011 -0.017  0.071 -0.093  0.199
   spin  2
    eigenvalues: 
  0.018  0.019  0.021  0.050  0.051
    eigenvectors:
  0.007  0.197  0.005  0.551  0.239
  0.130  0.672  0.000  0.147  0.051
  0.253  0.025  0.638  0.053  0.030
  0.446  0.075  0.356  0.045  0.078
  0.164  0.030  0.000  0.204  0.601
    occupations:
  0.044  0.013 -0.002  0.001 -0.002
  0.013  0.025 -0.002  0.001 -0.000
 -0.002 -0.002  0.023 -0.002 -0.008
  0.001  0.001 -0.002  0.023  0.010
 -0.002 -0.000 -0.008  0.010  0.044
atomic mag. moment =     1.587894
atom   21   Tr[ns(na)] (up, down, total) =   1.75087  0.15904  1.90991
   spin  1
    eigenvalues: 
  0.149  0.152  0.463  0.490  0.497
    eigenvectors:
  0.005  0.853  0.003  0.112  0.027
  0.001  0.138  0.002  0.751  0.107
  0.051  0.008  0.729  0.026  0.187
  0.087  0.000  0.263  0.104  0.545
  0.856  0.001  0.002  0.007  0.134
    occupations:
  0.200 -0.116  0.021  0.003  0.012
 -0.116  0.444  0.012 -0.003 -0.016
  0.021  0.012  0.452  0.009  0.072
  0.003 -0.003  0.009  0.457 -0.096
  0.012 -0.016  0.072 -0.096  0.199
   spin  2
    eigenvalues: 
  0.018  0.019  0.021  0.050  0.051
    eigenvectors:
  0.193  0.005  0.004  0.000  0.798
  0.705  0.103  0.000  0.000  0.192
  0.023  0.273  0.616  0.080  0.007
  0.055  0.441  0.380  0.124  0.000
  0.023  0.178  0.000  0.796  0.002
    occupations:
  0.044  0.013 -0.002  0.001 -0.001
  0.013  0.025 -0.001  0.000 -0.000
 -0.002 -0.001  0.023 -0.002 -0.008
  0.001  0.000 -0.002  0.023  0.010
 -0.001 -0.000 -0.008  0.010  0.044
atomic mag. moment =     1.591833
atom   22   Tr[ns(na)] (up, down, total) =   1.74830  0.15943  1.90774
   spin  1
    eigenvalues: 
  0.149  0.152  0.467  0.487  0.492
    eigenvectors:
  0.675  0.183  0.005  0.040  0.097
  0.090  0.050  0.000  0.186  0.675
  0.002  0.055  0.746  0.140  0.057
  0.022  0.064  0.246  0.515  0.154
  0.211  0.649  0.003  0.120  0.017
    occupations:
  0.198 -0.116  0.019  0.005  0.012
 -0.116  0.444  0.014 -0.006 -0.013
  0.019  0.014  0.454  0.013  0.070
  0.005 -0.006  0.013  0.454 -0.092
  0.012 -0.013  0.070 -0.092  0.199
   spin  2
    eigenvalues: 
  0.018  0.019  0.021  0.050  0.051
    eigenvectors:
  0.144  0.066  0.002  0.628  0.161
  0.397  0.399  0.003  0.157  0.044
  0.136  0.135  0.642  0.002  0.084
  0.230  0.298  0.352  0.020  0.100
  0.094  0.101  0.000  0.193  0.611
    occupations:
  0.044  0.013 -0.003  0.001 -0.001
  0.013  0.025 -0.001  0.000 -0.000
 -0.003 -0.001  0.023 -0.002 -0.008
  0.001  0.000 -0.002  0.023  0.010
 -0.001 -0.000 -0.008  0.010  0.044
atomic mag. moment =     1.588868
atom   23   Tr[ns(na)] (up, down, total) =   1.75066  0.15904  1.90970
   spin  1
    eigenvalues: 
  0.149  0.152  0.463  0.490  0.497
    eigenvectors:
  0.005  0.853  0.003  0.114  0.025
  0.001  0.138  0.003  0.761  0.097
  0.051  0.008  0.734  0.021  0.186
  0.087  0.000  0.257  0.098  0.557
  0.856  0.001  0.002  0.006  0.135
    occupations:
  0.200 -0.116  0.021  0.004  0.012
 -0.116  0.444  0.012 -0.004 -0.016
  0.021  0.012  0.452  0.009  0.072
  0.004 -0.004  0.009  0.457 -0.096
  0.012 -0.016  0.072 -0.096  0.198
   spin  2
    eigenvalues: 
  0.018  0.019  0.021  0.050  0.051
    eigenvectors:
  0.195  0.002  0.004  0.001  0.798
  0.728  0.080  0.000  0.001  0.191
  0.016  0.296  0.600  0.081  0.006
  0.043  0.438  0.396  0.124  0.000
  0.018  0.184  0.000  0.794  0.004
    occupations:
  0.044  0.013 -0.002  0.001 -0.001
  0.013  0.025 -0.001  0.000 -0.000
 -0.002 -0.001  0.023 -0.002 -0.008
  0.001  0.000 -0.002  0.024  0.010
 -0.001 -0.000 -0.008  0.010  0.044
atomic mag. moment =     1.591622
atom   24   Tr[ns(na)] (up, down, total) =   1.83439  0.17661  2.01099
   spin  1
    eigenvalues: 
  0.152  0.152  0.493  0.519  0.519
    eigenvectors:
  0.284  0.567  0.004  0.010  0.135
  0.028  0.118  0.001  0.027  0.826
  0.024  0.036  0.747  0.185  0.008
  0.064  0.026  0.245  0.635  0.031
  0.600  0.252  0.003  0.144  0.000
    occupations:
  0.206 -0.128  0.021  0.004  0.013
 -0.128  0.466  0.014 -0.005 -0.016
  0.021  0.014  0.477  0.015  0.078
  0.004 -0.005  0.015  0.480 -0.102
  0.013 -0.016  0.078 -0.102  0.206
   spin  2
    eigenvalues: 
  0.021  0.022  0.033  0.050  0.051
    eigenvectors:
  0.092  0.121  0.010  0.590  0.187
  0.185  0.601  0.002  0.163  0.048
  0.159  0.108  0.640  0.051  0.041
  0.409  0.113  0.348  0.038  0.093
  0.154  0.057  0.000  0.158  0.631
    occupations:
  0.044  0.012 -0.002  0.001 -0.001
  0.012  0.028 -0.002 -0.000 -0.000
 -0.002 -0.002  0.031  0.002 -0.007
  0.001 -0.000  0.002  0.029  0.009
 -0.001 -0.000 -0.007  0.009  0.044
atomic mag. moment =     1.657782
atom   25   Tr[ns(na)] (up, down, total) =   0.16157  1.78104  1.94261
   spin  1
    eigenvalues: 
  0.019  0.019  0.023  0.050  0.050
    eigenvectors:
  0.421  0.307  0.001  0.117  0.154
  0.024  0.289  0.000  0.070  0.616
  0.072  0.017  0.622  0.274  0.015
  0.156  0.028  0.376  0.403  0.038
  0.327  0.359  0.000  0.136  0.178
    occupations:
  0.027  0.013 -0.004  0.005 -0.001
  0.013  0.041 -0.001  0.001 -0.007
 -0.004 -0.001  0.030 -0.009 -0.008
  0.005  0.001 -0.009  0.034  0.010
 -0.001 -0.007 -0.008  0.010  0.029
   spin  2
    eigenvalues: 
  0.150  0.151  0.470  0.501  0.510
    eigenvectors:
  0.109  0.082  0.031  0.690  0.087
  0.720  0.048  0.011  0.198  0.023
  0.010  0.306  0.533  0.018  0.133
  0.027  0.463  0.397  0.045  0.068
  0.135  0.100  0.028  0.050  0.688
    occupations:
  0.433 -0.119  0.041 -0.053  0.014
 -0.119  0.231  0.016 -0.002  0.086
  0.041  0.016  0.375  0.122  0.080
 -0.053 -0.002  0.122  0.318 -0.095
  0.014  0.086  0.080 -0.095  0.424
atomic mag. moment =    -1.619474
atom   26   Tr[ns(na)] (up, down, total) =   0.16111  1.78078  1.94189
   spin  1
    eigenvalues: 
  0.019  0.019  0.023  0.050  0.050
    eigenvectors:
  0.086  0.638  0.006  0.110  0.160
  0.016  0.297  0.000  0.060  0.627
  0.082  0.000  0.628  0.278  0.012
  0.188  0.005  0.366  0.409  0.032
  0.628  0.059  0.000  0.143  0.170
    occupations:
  0.027  0.013 -0.004  0.005 -0.001
  0.013  0.041 -0.001  0.000 -0.007
 -0.004 -0.001  0.030 -0.009 -0.008
  0.005  0.000 -0.009  0.034  0.010
 -0.001 -0.007 -0.008  0.010  0.029
   spin  2
    eigenvalues: 
  0.150  0.151  0.470  0.501  0.510
    eigenvectors:
  0.109  0.082  0.033  0.688  0.088
  0.720  0.048  0.011  0.198  0.023
  0.010  0.307  0.533  0.019  0.133
  0.026  0.463  0.396  0.046  0.069
  0.135  0.100  0.028  0.050  0.688
    occupations:
  0.433 -0.119  0.041 -0.054  0.014
 -0.119  0.231  0.016 -0.002  0.086
  0.041  0.016  0.375  0.122  0.080
 -0.054 -0.002  0.122  0.318 -0.095
  0.014  0.086  0.080 -0.095  0.424
atomic mag. moment =    -1.619664
atom   27   Tr[ns(na)] (up, down, total) =   0.16097  1.79386  1.95483
   spin  1
    eigenvalues: 
  0.019  0.019  0.022  0.050  0.050
    eigenvectors:
  0.701  0.027  0.002  0.233  0.037
  0.159  0.154  0.000  0.686  0.000
  0.030  0.076  0.603  0.004  0.287
  0.068  0.100  0.395  0.001  0.437
  0.042  0.643  0.000  0.076  0.238
    occupations:
  0.027  0.013 -0.004  0.005 -0.001
  0.013  0.041 -0.001  0.000 -0.007
 -0.004 -0.001  0.030 -0.010 -0.008
  0.005  0.000 -0.010  0.034  0.010
 -0.001 -0.007 -0.008  0.010  0.029
   spin  2
    eigenvalues: 
  0.150  0.151  0.479  0.503  0.511
    eigenvectors:
  0.139  0.054  0.012  0.010  0.785
  0.756  0.007  0.000  0.063  0.174
  0.000  0.323  0.633  0.043  0.001
  0.003  0.482  0.354  0.124  0.037
  0.102  0.133  0.002  0.759  0.004
    occupations:
  0.441 -0.124  0.043 -0.053  0.012
 -0.124  0.235  0.014 -0.003  0.087
  0.043  0.014  0.374  0.128  0.074
 -0.053 -0.003  0.128  0.324 -0.096
  0.012  0.087  0.074 -0.096  0.420
atomic mag. moment =    -1.632890
atom   28   Tr[ns(na)] (up, down, total) =   0.17341  1.81850  1.99191
   spin  1
    eigenvalues: 
  0.021  0.022  0.030  0.050  0.051
    eigenvectors:
  0.712  0.008  0.000  0.212  0.068
  0.256  0.066  0.000  0.665  0.013
  0.010  0.153  0.546  0.000  0.290
  0.020  0.109  0.446  0.005  0.420
  0.001  0.664  0.007  0.118  0.209
    occupations:
  0.029  0.012 -0.004  0.004 -0.001
  0.012  0.041 -0.001  0.000 -0.007
 -0.004 -0.001  0.034 -0.006 -0.008
  0.004  0.000 -0.006  0.038  0.009
 -0.001 -0.007 -0.008  0.009  0.031
   spin  2
    eigenvalues: 
  0.151  0.152  0.483  0.513  0.519
    eigenvectors:
  0.128  0.068  0.028  0.226  0.549
  0.737  0.025  0.001  0.209  0.028
  0.003  0.316  0.631  0.037  0.013
  0.013  0.473  0.339  0.015  0.159
  0.119  0.117  0.000  0.513  0.250
    occupations:
  0.445 -0.127  0.042 -0.055  0.014
 -0.127  0.238  0.015 -0.002  0.087
  0.042  0.015  0.379  0.128  0.076
 -0.055 -0.002  0.128  0.328 -0.101
  0.014  0.087  0.076 -0.101  0.429
atomic mag. moment =    -1.645097
atom   29   Tr[ns(na)] (up, down, total) =   0.17243  1.81859  1.99103
   spin  1
    eigenvalues: 
  0.020  0.021  0.030  0.050  0.051
    eigenvectors:
  0.001  0.716  0.000  0.191  0.092
  0.084  0.239  0.004  0.639  0.034
  0.060  0.022  0.632  0.004  0.282
  0.177  0.022  0.362  0.018  0.421
  0.678  0.000  0.002  0.148  0.172
    occupations:
  0.030  0.012 -0.004  0.004 -0.001
  0.012  0.041 -0.001  0.001 -0.007
 -0.004 -0.001  0.035 -0.006 -0.007
  0.004  0.001 -0.006  0.037  0.010
 -0.001 -0.007 -0.007  0.010  0.030
   spin  2
    eigenvalues: 
  0.151  0.152  0.483  0.514  0.519
    eigenvectors:
  0.128  0.068  0.027  0.230  0.547
  0.737  0.025  0.001  0.210  0.028
  0.003  0.316  0.630  0.037  0.014
  0.013  0.473  0.341  0.015  0.158
  0.119  0.117  0.000  0.509  0.254
    occupations:
  0.445 -0.127  0.042 -0.055  0.014
 -0.127  0.238  0.015 -0.002  0.087
  0.042  0.015  0.379  0.128  0.077
 -0.055 -0.002  0.128  0.328 -0.101
  0.014  0.087  0.077 -0.101  0.429
atomic mag. moment =    -1.646159
atom   30   Tr[ns(na)] (up, down, total) =   0.16193  1.79401  1.95594
   spin  1
    eigenvalues: 
  0.019  0.019  0.023  0.050  0.050
    eigenvectors:
  0.681  0.044  0.003  0.161  0.110
  0.143  0.172  0.000  0.626  0.060
  0.028  0.058  0.623  0.011  0.279
  0.087  0.102  0.373  0.032  0.406
  0.062  0.624  0.000  0.170  0.144
    occupations:
  0.027  0.013 -0.004  0.005 -0.001
  0.013  0.041 -0.001  0.000 -0.007
 -0.004 -0.001  0.031 -0.009 -0.008
  0.005  0.000 -0.009  0.034  0.010
 -0.001 -0.007 -0.008  0.010  0.029
   spin  2
    eigenvalues: 
  0.150  0.151  0.479  0.503  0.511
    eigenvectors:
  0.138  0.055  0.012  0.010  0.785
  0.756  0.008  0.000  0.064  0.173
  0.000  0.323  0.634  0.042  0.001
  0.003  0.482  0.352  0.126  0.037
  0.103  0.132  0.002  0.759  0.004
    occupations:
  0.441 -0.124  0.043 -0.053  0.012
 -0.124  0.235  0.014 -0.003  0.087
  0.043  0.014  0.374  0.128  0.073
 -0.053 -0.003  0.128  0.324 -0.096
  0.012  0.087  0.073 -0.096  0.420
atomic mag. moment =    -1.632072
atom   31   Tr[ns(na)] (up, down, total) =   0.16113  1.79153  1.95266
   spin  1
    eigenvalues: 
  0.019  0.019  0.022  0.050  0.050
    eigenvectors:
  0.009  0.717  0.002  0.252  0.020
  0.065  0.250  0.000  0.675  0.010
  0.086  0.008  0.616  0.014  0.277
  0.155  0.023  0.383  0.009  0.430
  0.685  0.002  0.000  0.050  0.263
    occupations:
  0.028  0.012 -0.004  0.004 -0.001
  0.012  0.040 -0.001  0.000 -0.007
 -0.004 -0.001  0.030 -0.010 -0.008
  0.004  0.000 -0.010  0.034  0.010
 -0.001 -0.007 -0.008  0.010  0.029
   spin  2
    eigenvalues: 
  0.150  0.151  0.480  0.498  0.512
    eigenvectors:
  0.056  0.138  0.055  0.569  0.183
  0.572  0.195  0.007  0.221  0.005
  0.060  0.257  0.600  0.036  0.047
  0.119  0.369  0.336  0.022  0.153
  0.193  0.040  0.002  0.152  0.612
    occupations:
  0.432 -0.118  0.043 -0.054  0.016
 -0.118  0.231  0.015 -0.002  0.086
  0.043  0.015  0.378  0.127  0.076
 -0.054 -0.002  0.127  0.325 -0.099
  0.016  0.086  0.076 -0.099  0.425
atomic mag. moment =    -1.630407
atom   32   Tr[ns(na)] (up, down, total) =   0.11755  0.31658  0.43413
   spin  1
    eigenvalues: 
  0.013  0.013  0.015  0.039  0.039
    eigenvectors:
  0.725  0.008  0.005  0.240  0.022
  0.238  0.068  0.000  0.408  0.286
  0.004  0.090  0.612  0.150  0.145
  0.032  0.141  0.382  0.195  0.249
  0.002  0.693  0.000  0.007  0.298
    occupations:
  0.020  0.010 -0.003  0.004 -0.001
  0.010  0.031 -0.001  0.000 -0.006
 -0.003 -0.001  0.021 -0.008 -0.006
  0.004  0.000 -0.008  0.025  0.008
 -0.001 -0.006 -0.006  0.008  0.021
   spin  2
    eigenvalues: 
  0.044  0.045  0.060  0.084  0.084
    eigenvectors:
  0.315  0.363  0.002  0.015  0.305
  0.311  0.042  0.001  0.156  0.490
  0.025  0.081  0.628  0.173  0.093
  0.039  0.174  0.369  0.310  0.108
  0.310  0.341  0.000  0.345  0.003
    occupations:
  0.057  0.017 -0.004  0.005 -0.001
  0.017  0.070 -0.002  0.001 -0.008
 -0.004 -0.002  0.065 -0.006 -0.010
  0.005  0.001 -0.006  0.067  0.013
 -0.001 -0.008 -0.010  0.013  0.058
atomic mag. moment =    -0.199025
N of occupied +U levels =   29.632881
 --- exit write_ns ---

     total cpu time spent up to now is     1772.2 secs

     total energy              =   -7169.22184473 Ry
     Harris-Foulkes estimate   =   -7339.13573681 Ry
     estimated scf accuracy    <     589.62835922 Ry

     total magnetization       =     1.67 Bohr mag/cell
     absolute magnetization    =    34.32 Bohr mag/cell

     iteration #  2     ecut=   350.00 Ry     beta= 0.20
     Davidson diagonalization with overlap
     ethr =  1.00E-02,  avg # of iterations =  7.4

     total cpu time spent up to now is     3317.1 secs

     total energy              =   -7240.11953439 Ry
     Harris-Foulkes estimate   =   -7251.92569961 Ry
     estimated scf accuracy    <      81.47055640 Ry

     total magnetization       =    -7.12 Bohr mag/cell
     absolute magnetization    =    54.55 Bohr mag/cell

     iteration #  3     ecut=   350.00 Ry     beta= 0.20
     Davidson diagonalization with overlap
     ethr =  1.00E-02,  avg # of iterations =  2.6

     total cpu time spent up to now is     4108.1 secs

     total energy              =   -7236.37878521 Ry
     Harris-Foulkes estimate   =   -7253.09487556 Ry
     estimated scf accuracy    <     190.04337196 Ry

     total magnetization       =     9.42 Bohr mag/cell
     absolute magnetization    =    42.66 Bohr mag/cell

     iteration #  4     ecut=   350.00 Ry     beta= 0.20
     Davidson diagonalization with overlap
     ethr =  1.00E-02,  avg # of iterations =  1.5

     total cpu time spent up to now is     4880.9 secs

     total energy              =   -7243.87350543 Ry
     Harris-Foulkes estimate   =   -7247.86087838 Ry
     estimated scf accuracy    <      46.14246592 Ry

     total magnetization       =     4.91 Bohr mag/cell
     absolute magnetization    =    57.61 Bohr mag/cell

     iteration #  5     ecut=   350.00 Ry     beta= 0.20
     Davidson diagonalization with overlap
     ethr =  6.26E-03,  avg # of iterations =  1.6

     total cpu time spent up to now is     5654.5 secs

     total energy              =   -7247.06526782 Ry
     Harris-Foulkes estimate   =   -7249.23011159 Ry
     estimated scf accuracy    <      51.95333866 Ry

     total magnetization       =    -7.10 Bohr mag/cell
     absolute magnetization    =    55.07 Bohr mag/cell

     iteration #  6     ecut=   350.00 Ry     beta= 0.20
     Davidson diagonalization with overlap
     ethr =  6.26E-03,  avg # of iterations =  1.0

     total cpu time spent up to now is     6420.5 secs

     total energy              =   -7247.81968916 Ry
     Harris-Foulkes estimate   =   -7251.01483649 Ry
     estimated scf accuracy    <      58.53814098 Ry

     total magnetization       =     7.02 Bohr mag/cell
     absolute magnetization    =    51.98 Bohr mag/cell

     iteration #  7     ecut=   350.00 Ry     beta= 0.20
     Davidson diagonalization with overlap
     ethr =  6.26E-03,  avg # of iterations =  1.0

     total cpu time spent up to now is     7187.1 secs

     total energy              =   -7249.01051122 Ry
     Harris-Foulkes estimate   =   -7250.00527603 Ry
     estimated scf accuracy    <      31.23618913 Ry

     total magnetization       =   -13.77 Bohr mag/cell
     absolute magnetization    =    54.65 Bohr mag/cell

     iteration #  8     ecut=   350.00 Ry     beta= 0.20
     Davidson diagonalization with overlap
     ethr =  4.24E-03,  avg # of iterations =  1.0

     total cpu time spent up to now is     7954.2 secs

     total energy              =   -7249.00877236 Ry
     Harris-Foulkes estimate   =   -7249.86793774 Ry
     estimated scf accuracy    <      26.00378424 Ry

     total magnetization       =     3.13 Bohr mag/cell
     absolute magnetization    =    54.05 Bohr mag/cell

     iteration #  9     ecut=   350.00 Ry     beta= 0.20
     Davidson diagonalization with overlap
     ethr =  3.53E-03,  avg # of iterations =  1.2

     total cpu time spent up to now is     8721.5 secs

     total energy              =   -7249.08859298 Ry
     Harris-Foulkes estimate   =   -7250.22727244 Ry
     estimated scf accuracy    <      30.03843938 Ry

     total magnetization       =     5.07 Bohr mag/cell
     absolute magnetization    =    54.05 Bohr mag/cell

     iteration # 10     ecut=   350.00 Ry     beta= 0.20
     Davidson diagonalization with overlap
     ethr =  3.53E-03,  avg # of iterations =  1.0

     total cpu time spent up to now is     9486.1 secs

     total energy              =   -7249.73836972 Ry
     Harris-Foulkes estimate   =   -7249.94796584 Ry
     estimated scf accuracy    <       9.12734721 Ry

     total magnetization       =     7.25 Bohr mag/cell
     absolute magnetization    =    52.93 Bohr mag/cell

     iteration # 11     ecut=   350.00 Ry     beta= 0.20
     Davidson diagonalization with overlap
     ethr =  1.24E-03,  avg # of iterations =  4.4

     total cpu time spent up to now is    10293.8 secs

     total energy              =   -7249.82538944 Ry
     Harris-Foulkes estimate   =   -7249.98850780 Ry
     estimated scf accuracy    <      11.69820648 Ry

     total magnetization       =     0.77 Bohr mag/cell
     absolute magnetization    =    53.16 Bohr mag/cell

     iteration # 12     ecut=   350.00 Ry     beta= 0.20
     Davidson diagonalization with overlap
     ethr =  1.24E-03,  avg # of iterations =  1.1

     total cpu time spent up to now is    11060.3 secs

     total energy              =   -7249.86237678 Ry
     Harris-Foulkes estimate   =   -7249.91302827 Ry
     estimated scf accuracy    <       4.94625292 Ry

     total magnetization       =     5.23 Bohr mag/cell
     absolute magnetization    =    52.70 Bohr mag/cell

     iteration # 13     ecut=   350.00 Ry     beta= 0.20
     Davidson diagonalization with overlap
     ethr =  6.71E-04,  avg # of iterations =  2.5

     total cpu time spent up to now is    11843.0 secs

     total energy              =   -7250.01334329 Ry
     Harris-Foulkes estimate   =   -7249.92449321 Ry
     estimated scf accuracy    <       4.39787441 Ry

     total magnetization       =     3.97 Bohr mag/cell
     absolute magnetization    =    52.64 Bohr mag/cell

     iteration # 14     ecut=   350.00 Ry     beta= 0.20
     Davidson diagonalization with overlap
     ethr =  5.97E-04,  avg # of iterations =  3.6

     total cpu time spent up to now is    12642.8 secs

     total energy              =   -7249.82445728 Ry
     Harris-Foulkes estimate   =   -7250.27105739 Ry
     estimated scf accuracy    <       9.96396379 Ry

     total magnetization       =     0.05 Bohr mag/cell
     absolute magnetization    =    52.96 Bohr mag/cell

     iteration # 15     ecut=   350.00 Ry     beta= 0.20
     Davidson diagonalization with overlap
     ethr =  5.97E-04,  avg # of iterations =  1.1

     total cpu time spent up to now is    13412.9 secs

     total energy              =   -7250.11222595 Ry
     Harris-Foulkes estimate   =   -7250.08383220 Ry
     estimated scf accuracy    <       2.85661844 Ry

     total magnetization       =     2.08 Bohr mag/cell
     absolute magnetization    =    52.71 Bohr mag/cell

     iteration # 16     ecut=   350.00 Ry     beta= 0.20
     Davidson diagonalization with overlap
     ethr =  3.88E-04,  avg # of iterations =  1.0

     total cpu time spent up to now is    14179.7 secs

     total energy              =   -7250.36385946 Ry
     Harris-Foulkes estimate   =   -7250.13088006 Ry
     estimated scf accuracy    <       2.75313430 Ry

     total magnetization       =     1.92 Bohr mag/cell
     absolute magnetization    =    52.65 Bohr mag/cell

     iteration # 17     ecut=   350.00 Ry     beta= 0.20
     Davidson diagonalization with overlap
     ethr =  3.74E-04,  avg # of iterations =  1.0

     total cpu time spent up to now is    14948.9 secs

     total energy              =   -7250.35267999 Ry
     Harris-Foulkes estimate   =   -7250.41578854 Ry
     estimated scf accuracy    <       3.32625964 Ry

     total magnetization       =     0.25 Bohr mag/cell
     absolute magnetization    =    52.68 Bohr mag/cell

     iteration # 18     ecut=   350.00 Ry     beta= 0.20
     Davidson diagonalization with overlap
     ethr =  3.74E-04,  avg # of iterations =  1.6

     total cpu time spent up to now is    15730.2 secs

     total energy              =   -7250.42873763 Ry
     Harris-Foulkes estimate   =   -7250.41456218 Ry
     estimated scf accuracy    <       2.45413753 Ry

     total magnetization       =     1.29 Bohr mag/cell
     absolute magnetization    =    52.79 Bohr mag/cell

     iteration # 19     ecut=   350.00 Ry     beta= 0.20
     Davidson diagonalization with overlap
     ethr =  3.33E-04,  avg # of iterations =  2.6

     total cpu time spent up to now is    16521.1 secs

     total energy              =   -7250.40504523 Ry
     Harris-Foulkes estimate   =   -7250.61461368 Ry
     estimated scf accuracy    <       9.86971346 Ry

     total magnetization       =     2.48 Bohr mag/cell
     absolute magnetization    =    52.56 Bohr mag/cell

     iteration # 20     ecut=   350.00 Ry     beta= 0.20
     Davidson diagonalization with overlap
     ethr =  3.33E-04,  avg # of iterations =  1.7

     total cpu time spent up to now is    17302.7 secs

     total energy              =   -7250.86804988 Ry
     Harris-Foulkes estimate   =   -7250.68655824 Ry
     estimated scf accuracy    <       1.91173445 Ry

     total magnetization       =     0.97 Bohr mag/cell
     absolute magnetization    =    52.85 Bohr mag/cell

     iteration # 21     ecut=   350.00 Ry     beta= 0.20
     Davidson diagonalization with overlap
     ethr =  2.59E-04,  avg # of iterations =  1.0

     total cpu time spent up to now is    18082.9 secs

     total energy              =   -7251.25960928 Ry
     Harris-Foulkes estimate   =   -7250.88199176 Ry
     estimated scf accuracy    <       1.58852608 Ry

     total magnetization       =     1.08 Bohr mag/cell
     absolute magnetization    =    52.83 Bohr mag/cell

     iteration # 22     ecut=   350.00 Ry     beta= 0.20
     Davidson diagonalization with overlap
     ethr =  2.16E-04,  avg # of iterations =  1.0

     total cpu time spent up to now is    18855.7 secs

     total energy              =   -7251.29772926 Ry
     Harris-Foulkes estimate   =   -7251.30638356 Ry
     estimated scf accuracy    <       0.86246030 Ry

     total magnetization       =     0.98 Bohr mag/cell
     absolute magnetization    =    52.53 Bohr mag/cell

     iteration # 23     ecut=   350.00 Ry     beta= 0.20
     Davidson diagonalization with overlap
     c_bands:  3 eigenvalues not converged
     ethr =  1.17E-04,  avg # of iterations =  8.1

     total cpu time spent up to now is    19718.0 secs

     total energy              =   -7251.26686265 Ry
     Harris-Foulkes estimate   =   -7251.30910895 Ry
     estimated scf accuracy    <       0.60354522 Ry

     total magnetization       =     1.03 Bohr mag/cell
     absolute magnetization    =    52.57 Bohr mag/cell

     iteration # 24     ecut=   350.00 Ry     beta= 0.20
     Davidson diagonalization with overlap
     ethr =  8.19E-05,  avg # of iterations =  6.4

     total cpu time spent up to now is    20597.3 secs

     total energy              =   -7251.28011605 Ry
     Harris-Foulkes estimate   =   -7251.34372936 Ry
     estimated scf accuracy    <       1.40772851 Ry

     total magnetization       =     4.21 Bohr mag/cell
     absolute magnetization    =    51.21 Bohr mag/cell

     iteration # 25     ecut=   350.00 Ry     beta= 0.20
     Davidson diagonalization with overlap
     ethr =  8.19E-05,  avg # of iterations =  1.7

     total cpu time spent up to now is    21379.0 secs

     total energy              =   -7251.33049737 Ry
     Harris-Foulkes estimate   =   -7251.32416107 Ry
     estimated scf accuracy    <       0.21817094 Ry

     total magnetization       =     1.53 Bohr mag/cell
     absolute magnetization    =    52.42 Bohr mag/cell

     iteration # 26     ecut=   350.00 Ry     beta= 0.20
     Davidson diagonalization with overlap
     c_bands:  1 eigenvalues not converged
     c_bands:  2 eigenvalues not converged
     c_bands:  1 eigenvalues not converged
     ethr =  2.96E-05,  avg # of iterations =  8.8

     total cpu time spent up to now is    22249.9 secs

     total energy              =   -7251.33637058 Ry
     Harris-Foulkes estimate   =   -7251.33422171 Ry
     estimated scf accuracy    <       0.10829607 Ry

     total magnetization       =     2.44 Bohr mag/cell
     absolute magnetization    =    52.03 Bohr mag/cell

     iteration # 27     ecut=   350.00 Ry     beta= 0.20
     Davidson diagonalization with overlap
     c_bands:  4 eigenvalues not converged
     c_bands:  2 eigenvalues not converged
     c_bands:  1 eigenvalues not converged
     ethr =  1.47E-05,  avg # of iterations = 11.4

     total cpu time spent up to now is    23160.1 secs

     total energy              =   -7251.33720578 Ry
     Harris-Foulkes estimate   =   -7251.33853179 Ry
     estimated scf accuracy    <       0.14079438 Ry

     total magnetization       =     2.82 Bohr mag/cell
     absolute magnetization    =    51.93 Bohr mag/cell

     iteration # 28     ecut=   350.00 Ry     beta= 0.20
     Davidson diagonalization with overlap
     ethr =  1.47E-05,  avg # of iterations =  1.8

     total cpu time spent up to now is    23933.5 secs

     total energy              =   -7251.34191858 Ry
     Harris-Foulkes estimate   =   -7251.33738549 Ry
     estimated scf accuracy    <       0.13950950 Ry

     total magnetization       =     2.81 Bohr mag/cell
     absolute magnetization    =    51.94 Bohr mag/cell

     iteration # 29     ecut=   350.00 Ry     beta= 0.20
     Davidson diagonalization with overlap
     ethr =  1.47E-05,  avg # of iterations =  2.5

     total cpu time spent up to now is    24715.3 secs

     total energy              =   -7251.34703714 Ry
     Harris-Foulkes estimate   =   -7251.34516713 Ry
     estimated scf accuracy    <       0.21689669 Ry

     total magnetization       =     3.13 Bohr mag/cell
     absolute magnetization    =    51.87 Bohr mag/cell

     iteration # 30     ecut=   350.00 Ry     beta= 0.20
     Davidson diagonalization with overlap
     ethr =  1.47E-05,  avg # of iterations =  1.0

     total cpu time spent up to now is    25480.2 secs

     total energy              =   -7251.35207386 Ry
     Harris-Foulkes estimate   =   -7251.34715683 Ry
     estimated scf accuracy    <       0.21378535 Ry

     total magnetization       =     3.09 Bohr mag/cell
     absolute magnetization    =    51.86 Bohr mag/cell

     iteration # 31     ecut=   350.00 Ry     beta= 0.20
     Davidson diagonalization with overlap
     ethr =  1.47E-05,  avg # of iterations =  1.5

     total cpu time spent up to now is    26250.7 secs

     total energy              =   -7251.35249177 Ry
     Harris-Foulkes estimate   =   -7251.35430755 Ry
     estimated scf accuracy    <       0.28595308 Ry

     total magnetization       =     3.10 Bohr mag/cell
     absolute magnetization    =    51.79 Bohr mag/cell

     iteration # 32     ecut=   350.00 Ry     beta= 0.20
     Davidson diagonalization with overlap
     ethr =  1.47E-05,  avg # of iterations =  1.0

     total cpu time spent up to now is    27015.5 secs

     total energy              =   -7251.36374354 Ry
     Harris-Foulkes estimate   =   -7251.35264370 Ry
     estimated scf accuracy    <       0.26008424 Ry

     total magnetization       =     3.01 Bohr mag/cell
     absolute magnetization    =    51.83 Bohr mag/cell

     iteration # 33     ecut=   350.00 Ry     beta= 0.20
     Davidson diagonalization with overlap
     ethr =  1.47E-05,  avg # of iterations =  1.0

     total cpu time spent up to now is    27780.9 secs

     total energy              =   -7251.36806499 Ry
     Harris-Foulkes estimate   =   -7251.36536538 Ry
     estimated scf accuracy    <       0.25658489 Ry

     total magnetization       =     3.05 Bohr mag/cell
     absolute magnetization    =    51.78 Bohr mag/cell

     iteration # 34     ecut=   350.00 Ry     beta= 0.20
     Davidson diagonalization with overlap
     ethr =  1.47E-05,  avg # of iterations =  1.0

     total cpu time spent up to now is    28546.2 secs

     total energy              =   -7251.36600349 Ry
     Harris-Foulkes estimate   =   -7251.36986789 Ry
     estimated scf accuracy    <       0.24191168 Ry

     total magnetization       =     3.00 Bohr mag/cell
     absolute magnetization    =    51.80 Bohr mag/cell

     iteration # 35     ecut=   350.00 Ry     beta= 0.20
     Davidson diagonalization with overlap
     ethr =  1.47E-05,  avg # of iterations =  1.6

     total cpu time spent up to now is    29318.5 secs

     total energy              =   -7251.37681665 Ry
     Harris-Foulkes estimate   =   -7251.37007952 Ry
     estimated scf accuracy    <       0.16086846 Ry

     total magnetization       =     3.07 Bohr mag/cell
     absolute magnetization    =    51.88 Bohr mag/cell

     iteration # 36     ecut=   350.00 Ry     beta= 0.20
     Davidson diagonalization with overlap
     ethr =  1.47E-05,  avg # of iterations =  2.6

     total cpu time spent up to now is    30102.3 secs

     total energy              =   -7251.41009976 Ry
     Harris-Foulkes estimate   =   -7251.38101316 Ry
     estimated scf accuracy    <       0.08828801 Ry

     total magnetization       =     3.09 Bohr mag/cell
     absolute magnetization    =    51.94 Bohr mag/cell

     iteration # 37     ecut=   350.00 Ry     beta= 0.20
     Davidson diagonalization with overlap
     ethr =  1.20E-05,  avg # of iterations =  3.3

     total cpu time spent up to now is    30902.3 secs

     total energy              =   -7251.42887617 Ry
     Harris-Foulkes estimate   =   -7251.41566935 Ry
     estimated scf accuracy    <       0.04538016 Ry

     total magnetization       =     3.07 Bohr mag/cell
     absolute magnetization    =    51.99 Bohr mag/cell

     iteration # 38     ecut=   350.00 Ry     beta= 0.20
     Davidson diagonalization with overlap
     c_bands:  2 eigenvalues not converged
     c_bands:  4 eigenvalues not converged
     ethr =  6.16E-06,  avg # of iterations =  5.8

     total cpu time spent up to now is    31729.4 secs

     total energy              =   -7251.43323319 Ry
     Harris-Foulkes estimate   =   -7251.43106144 Ry
     estimated scf accuracy    <       0.01770700 Ry

     total magnetization       =     3.01 Bohr mag/cell
     absolute magnetization    =    51.96 Bohr mag/cell

     iteration # 39     ecut=   350.00 Ry     beta= 0.20
     Davidson diagonalization with overlap
     c_bands:  4 eigenvalues not converged
     ethr =  2.40E-06,  avg # of iterations = 12.0

     total cpu time spent up to now is    32664.7 secs

     total energy              =   -7251.43428684 Ry
     Harris-Foulkes estimate   =   -7251.43387193 Ry
     estimated scf accuracy    <       0.00915048 Ry

     total magnetization       =     3.02 Bohr mag/cell
     absolute magnetization    =    51.92 Bohr mag/cell

     iteration # 40     ecut=   350.00 Ry     beta= 0.20
     Davidson diagonalization with overlap
     ethr =  1.24E-06,  avg # of iterations =  3.7

     total cpu time spent up to now is    33471.3 secs

     total energy              =   -7251.43512377 Ry
     Harris-Foulkes estimate   =   -7251.43472089 Ry
     estimated scf accuracy    <       0.00345452 Ry

     total magnetization       =     3.01 Bohr mag/cell
     absolute magnetization    =    51.88 Bohr mag/cell

     iteration # 41     ecut=   350.00 Ry     beta= 0.20
     Davidson diagonalization with overlap
     ethr =  4.69E-07,  avg # of iterations =  1.9

     total cpu time spent up to now is    34252.6 secs

     total energy              =   -7251.43625695 Ry
     Harris-Foulkes estimate   =   -7251.43533192 Ry
     estimated scf accuracy    <       0.00184312 Ry

     total magnetization       =     3.00 Bohr mag/cell
     absolute magnetization    =    51.85 Bohr mag/cell

     iteration # 42     ecut=   350.00 Ry     beta= 0.20
     Davidson diagonalization with overlap
     ethr =  2.50E-07,  avg # of iterations =  2.0

     total cpu time spent up to now is    35047.8 secs

     total energy              =   -7251.43686738 Ry
     Harris-Foulkes estimate   =   -7251.43658236 Ry
     estimated scf accuracy    <       0.00080906 Ry

     total magnetization       =     3.00 Bohr mag/cell
     absolute magnetization    =    51.82 Bohr mag/cell

     iteration # 43     ecut=   350.00 Ry     beta= 0.20
     Davidson diagonalization with overlap
     ethr =  1.10E-07,  avg # of iterations =  2.0

     total cpu time spent up to now is    35837.9 secs

     total energy              =   -7251.43714412 Ry
     Harris-Foulkes estimate   =   -7251.43696238 Ry
     estimated scf accuracy    <       0.00054007 Ry

     total magnetization       =     3.00 Bohr mag/cell
     absolute magnetization    =    51.80 Bohr mag/cell

     iteration # 44     ecut=   350.00 Ry     beta= 0.20
     Davidson diagonalization with overlap
     ethr =  7.33E-08,  avg # of iterations =  1.9

     total cpu time spent up to now is    36619.3 secs

     total energy              =   -7251.43737093 Ry
     Harris-Foulkes estimate   =   -7251.43718995 Ry
     estimated scf accuracy    <       0.00044727 Ry

     total magnetization       =     3.00 Bohr mag/cell
     absolute magnetization    =    51.79 Bohr mag/cell

     iteration # 45     ecut=   350.00 Ry     beta= 0.20
     Davidson diagonalization with overlap
     ethr =  6.07E-08,  avg # of iterations =  2.1

     total cpu time spent up to now is    37421.0 secs

     total energy              =   -7251.43757991 Ry
     Harris-Foulkes estimate   =   -7251.43744933 Ry
     estimated scf accuracy    <       0.00037802 Ry

     total magnetization       =     3.00 Bohr mag/cell
     absolute magnetization    =    51.77 Bohr mag/cell

     iteration # 46     ecut=   350.00 Ry     beta= 0.20
     Davidson diagonalization with overlap
     ethr =  5.13E-08,  avg # of iterations =  1.5

     total cpu time spent up to now is    38200.1 secs

     total energy              =   -7251.43764339 Ry
     Harris-Foulkes estimate   =   -7251.43762860 Ry
     estimated scf accuracy    <       0.00040236 Ry

     total magnetization       =     3.00 Bohr mag/cell
     absolute magnetization    =    51.76 Bohr mag/cell

     iteration # 47     ecut=   350.00 Ry     beta= 0.20
     Davidson diagonalization with overlap
     ethr =  5.13E-08,  avg # of iterations =  1.0

     total cpu time spent up to now is    38970.8 secs

     total energy              =   -7251.43762409 Ry
     Harris-Foulkes estimate   =   -7251.43764533 Ry
     estimated scf accuracy    <       0.00040081 Ry

     total magnetization       =     3.00 Bohr mag/cell
     absolute magnetization    =    51.76 Bohr mag/cell

     iteration # 48     ecut=   350.00 Ry     beta= 0.20
     Davidson diagonalization with overlap
     ethr =  5.13E-08,  avg # of iterations =  1.0

     total cpu time spent up to now is    39740.7 secs

     total energy              =   -7251.43764098 Ry
     Harris-Foulkes estimate   =   -7251.43762543 Ry
     estimated scf accuracy    <       0.00039022 Ry

     total magnetization       =     3.00 Bohr mag/cell
     absolute magnetization    =    51.76 Bohr mag/cell

     iteration # 49     ecut=   350.00 Ry     beta= 0.20
     Davidson diagonalization with overlap
     ethr =  5.13E-08,  avg # of iterations =  1.0

     total cpu time spent up to now is    40509.6 secs

     total energy              =   -7251.43771056 Ry
     Harris-Foulkes estimate   =   -7251.43764212 Ry
     estimated scf accuracy    <       0.00041887 Ry

     total magnetization       =     3.00 Bohr mag/cell
     absolute magnetization    =    51.75 Bohr mag/cell

     iteration # 50     ecut=   350.00 Ry     beta= 0.20
     Davidson diagonalization with overlap
     ethr =  5.13E-08,  avg # of iterations =  2.2

     total cpu time spent up to now is    41318.2 secs

     total energy              =   -7251.43780789 Ry
     Harris-Foulkes estimate   =   -7251.43774435 Ry
     estimated scf accuracy    <       0.00035502 Ry

     total magnetization       =     3.00 Bohr mag/cell
     absolute magnetization    =    51.75 Bohr mag/cell

     iteration # 51     ecut=   350.00 Ry     beta= 0.20
     Davidson diagonalization with overlap
     ethr =  4.82E-08,  avg # of iterations =  2.2

     total cpu time spent up to now is    42100.9 secs

     total energy              =   -7251.43760910 Ry
     Harris-Foulkes estimate   =   -7251.43782389 Ry
     estimated scf accuracy    <       0.00035601 Ry

     total magnetization       =     3.00 Bohr mag/cell
     absolute magnetization    =    51.74 Bohr mag/cell

     iteration # 52     ecut=   350.00 Ry     beta= 0.20
     Davidson diagonalization with overlap
     ethr =  4.82E-08,  avg # of iterations =  1.9

     total cpu time spent up to now is    42886.5 secs

     total energy              =   -7251.43752405 Ry
     Harris-Foulkes estimate   =   -7251.43765632 Ry
     estimated scf accuracy    <       0.00035393 Ry

     total magnetization       =     3.00 Bohr mag/cell
     absolute magnetization    =    51.76 Bohr mag/cell

     iteration # 53     ecut=   350.00 Ry     beta= 0.20
     Davidson diagonalization with overlap
     ethr =  4.80E-08,  avg # of iterations =  1.5

     total cpu time spent up to now is    43662.5 secs

     total energy              =   -7251.43756717 Ry
     Harris-Foulkes estimate   =   -7251.43754626 Ry
     estimated scf accuracy    <       0.00034907 Ry

     total magnetization       =     3.00 Bohr mag/cell
     absolute magnetization    =    51.77 Bohr mag/cell

     iteration # 54     ecut=   350.00 Ry     beta= 0.20
     Davidson diagonalization with overlap
     ethr =  4.74E-08,  avg # of iterations =  1.0

     total cpu time spent up to now is    44432.6 secs

     total energy              =   -7251.43773567 Ry
     Harris-Foulkes estimate   =   -7251.43756845 Ry
     estimated scf accuracy    <       0.00034586 Ry

     total magnetization       =     3.00 Bohr mag/cell
     absolute magnetization    =    51.76 Bohr mag/cell

     iteration # 55     ecut=   350.00 Ry     beta= 0.20
     Davidson diagonalization with overlap
     ethr =  4.69E-08,  avg # of iterations =  3.0

     total cpu time spent up to now is    45323.6 secs

     total energy              =   -7251.43785620 Ry
     Harris-Foulkes estimate   =   -7251.43789479 Ry
     estimated scf accuracy    <       0.00046700 Ry

     total magnetization       =     3.00 Bohr mag/cell
     absolute magnetization    =    51.74 Bohr mag/cell

     iteration # 56     ecut=   350.00 Ry     beta= 0.20
     Davidson diagonalization with overlap
     ethr =  4.69E-08,  avg # of iterations =  1.0

     total cpu time spent up to now is    46091.8 secs

     total energy              =   -7251.43795369 Ry
     Harris-Foulkes estimate   =   -7251.43785883 Ry
     estimated scf accuracy    <       0.00044488 Ry

     total magnetization       =     3.00 Bohr mag/cell
     absolute magnetization    =    51.74 Bohr mag/cell

     iteration # 57     ecut=   350.00 Ry     beta= 0.20
     Davidson diagonalization with overlap
     ethr =  4.69E-08,  avg # of iterations =  1.5

     total cpu time spent up to now is    46867.8 secs

     total energy              =   -7251.43711571 Ry
     Harris-Foulkes estimate   =   -7251.43796875 Ry
     estimated scf accuracy    <       0.00046335 Ry

     total magnetization       =     3.00 Bohr mag/cell
     absolute magnetization    =    51.73 Bohr mag/cell

     iteration # 58     ecut=   350.00 Ry     beta= 0.20
     Davidson diagonalization with overlap
     ethr =  4.69E-08,  avg # of iterations =  3.3

     total cpu time spent up to now is    47783.1 secs

     total energy              =   -7251.43565307 Ry
     Harris-Foulkes estimate   =   -7251.43747129 Ry
     estimated scf accuracy    <       0.00035252 Ry

     total magnetization       =     3.00 Bohr mag/cell
     absolute magnetization    =    51.77 Bohr mag/cell

     iteration # 59     ecut=   350.00 Ry     beta= 0.20
     Davidson diagonalization with overlap
     ethr =  4.69E-08,  avg # of iterations =  3.6

     total cpu time spent up to now is    48830.3 secs

     total energy              =   -7251.43653327 Ry
     Harris-Foulkes estimate   =   -7251.43670181 Ry
     estimated scf accuracy    <       0.00037732 Ry

     total magnetization       =     3.00 Bohr mag/cell
     absolute magnetization    =    51.84 Bohr mag/cell

     iteration # 60     ecut=   350.00 Ry     beta= 0.20
     Davidson diagonalization with overlap
     ethr =  4.69E-08,  avg # of iterations =  2.0

     total cpu time spent up to now is    49620.2 secs

     total energy              =   -7251.43666661 Ry
     Harris-Foulkes estimate   =   -7251.43656792 Ry
     estimated scf accuracy    <       0.00041420 Ry

     total magnetization       =     3.00 Bohr mag/cell
     absolute magnetization    =    51.85 Bohr mag/cell

     iteration # 61     ecut=   350.00 Ry     beta= 0.20
     Davidson diagonalization with overlap
     ethr =  4.69E-08,  avg # of iterations =  3.6

     total cpu time spent up to now is    50538.3 secs

     total energy              =   -7251.43673372 Ry
     Harris-Foulkes estimate   =   -7251.43698205 Ry
     estimated scf accuracy    <       0.00039022 Ry

     total magnetization       =     3.00 Bohr mag/cell
     absolute magnetization    =    51.82 Bohr mag/cell

     iteration # 62     ecut=   350.00 Ry     beta= 0.20
     Davidson diagonalization with overlap
     ethr =  4.69E-08,  avg # of iterations =  2.0

     total cpu time spent up to now is    51336.6 secs

     total energy              =   -7251.43614278 Ry
     Harris-Foulkes estimate   =   -7251.43680297 Ry
     estimated scf accuracy    <       0.00037725 Ry

     total magnetization       =     3.00 Bohr mag/cell
     absolute magnetization    =    51.83 Bohr mag/cell

     iteration # 63     ecut=   350.00 Ry     beta= 0.20
     Davidson diagonalization with overlap
     ethr =  4.69E-08,  avg # of iterations =  3.6

     total cpu time spent up to now is    52264.5 secs

     total energy              =   -7251.43620176 Ry
     Harris-Foulkes estimate   =   -7251.43643600 Ry
     estimated scf accuracy    <       0.00056235 Ry

     total magnetization       =     3.00 Bohr mag/cell
     absolute magnetization    =    51.85 Bohr mag/cell

     iteration # 64     ecut=   350.00 Ry     beta= 0.20
     Davidson diagonalization with overlap
     ethr =  4.69E-08,  avg # of iterations =  2.0

     total cpu time spent up to now is    53055.8 secs

     total energy              =   -7251.43608430 Ry
     Harris-Foulkes estimate   =   -7251.43625836 Ry
     estimated scf accuracy    <       0.00074520 Ry

     total magnetization       =     3.00 Bohr mag/cell
     absolute magnetization    =    51.87 Bohr mag/cell

     iteration # 65     ecut=   350.00 Ry     beta= 0.20
     Davidson diagonalization with overlap
     ethr =  4.69E-08,  avg # of iterations =  2.0

     total cpu time spent up to now is    53843.3 secs

     total energy              =   -7251.43624981 Ry
     Harris-Foulkes estimate   =   -7251.43613966 Ry
     estimated scf accuracy    <       0.00093652 Ry

     total magnetization       =     3.00 Bohr mag/cell
     absolute magnetization    =    51.87 Bohr mag/cell

     iteration # 66     ecut=   350.00 Ry     beta= 0.20
     Davidson diagonalization with overlap
     ethr =  4.69E-08,  avg # of iterations =  2.6

     total cpu time spent up to now is    54682.5 secs

     total energy              =   -7251.43658201 Ry
     Harris-Foulkes estimate   =   -7251.43646169 Ry
     estimated scf accuracy    <       0.00051904 Ry

     total magnetization       =     3.00 Bohr mag/cell
     absolute magnetization    =    51.85 Bohr mag/cell

     iteration # 67     ecut=   350.00 Ry     beta= 0.20
     Davidson diagonalization with overlap
     ethr =  4.69E-08,  avg # of iterations =  2.9

     total cpu time spent up to now is    55507.6 secs

     total energy              =   -7251.43670488 Ry
     Harris-Foulkes estimate   =   -7251.43669809 Ry
     estimated scf accuracy    <       0.00034680 Ry

     total magnetization       =     3.00 Bohr mag/cell
     absolute magnetization    =    51.83 Bohr mag/cell

     iteration # 68     ecut=   350.00 Ry     beta= 0.20
     Davidson diagonalization with overlap
     ethr =  4.69E-08,  avg # of iterations =  1.0

     total cpu time spent up to now is    56277.1 secs

     total energy              =   -7251.43679858 Ry
     Harris-Foulkes estimate   =   -7251.43670763 Ry
     estimated scf accuracy    <       0.00033866 Ry

     total magnetization       =     3.00 Bohr mag/cell
[...]

     total cpu time spent up to now is   129473.0 secs

     total energy              =   -7251.43678705 Ry
     Harris-Foulkes estimate   =   -7251.43677987 Ry
     estimated scf accuracy    <       0.00003293 Ry

     total magnetization       =     3.00 Bohr mag/cell
     absolute magnetization    =    51.73 Bohr mag/cell

     iteration #156     ecut=   350.00 Ry     beta= 0.20
     Davidson diagonalization with overlap
     ethr =  4.18E-09,  avg # of iterations =  1.6

     total cpu time spent up to now is   130249.5 secs

     total energy              =   -7251.43680138 Ry
     Harris-Foulkes estimate   =   -7251.43678974 Ry
     estimated scf accuracy    <       0.00003193 Ry

     total magnetization       =     3.00 Bohr mag/cell
     absolute magnetization    =    51.73 Bohr mag/cell

     iteration #157     ecut=   350.00 Ry     beta= 0.20
     Davidson diagonalization with overlap
     ethr =  4.18E-09,  avg # of iterations =  2.0

     total cpu time spent up to now is   131033.7 secs

     total energy              =   -7251.43678532 Ry
     Harris-Foulkes estimate   =   -7251.43680617 Ry
     estimated scf accuracy    <       0.00003299 Ry

     total magnetization       =     3.00 Bohr mag/cell
     absolute magnetization    =    51.73 Bohr mag/cell

     iteration #158     ecut=   350.00 Ry     beta= 0.20
     Davidson diagonalization with overlap
     ethr =  4.18E-09,  avg # of iterations =  2.0

     total cpu time spent up to now is   131817.7 secs

     total energy              =   -7251.43677820 Ry
     Harris-Foulkes estimate   =   -7251.43679048 Ry
     estimated scf accuracy    <       0.00003239 Ry

     total magnetization       =     3.00 Bohr mag/cell
     absolute magnetization    =    51.72 Bohr mag/cell

     iteration #159     ecut=   350.00 Ry     beta= 0.20
     Davidson diagonalization with overlap
     ethr =  4.18E-09,  avg # of iterations =  1.8

     total cpu time spent up to now is   132594.5 secs

     total energy              =   -7251.43678739 Ry
     Harris-Foulkes estimate   =   -7251.43678047 Ry
     estimated scf accuracy    <       0.00003181 Ry

     total magnetization       =     3.00 Bohr mag/cell
     absolute magnetization    =    51.72 Bohr mag/cell

     iteration #160     ecut=   350.00 Ry     beta= 0.20
     Davidson diagonalization with overlap
     ethr =  4.18E-09,  avg # of iterations =  1.0

     total cpu time spent up to now is   133363.7 secs

     total energy              =   -7251.43677308 Ry
     Harris-Foulkes estimate   =   -7251.43678817 Ry
     estimated scf accuracy    <       0.00003161 Ry

     total magnetization       =     3.00 Bohr mag/cell
     absolute magnetization    =    51.72 Bohr mag/cell

     iteration #161     ecut=   350.00 Ry     beta= 0.20
     Davidson diagonalization with overlap
     ethr =  4.18E-09,  avg # of iterations =  3.0

     total cpu time spent up to now is   134350.6 secs

     total energy              =   -7251.43673860 Ry
     Harris-Foulkes estimate   =   -7251.43687406 Ry
     estimated scf accuracy    <       0.00003252 Ry

     total magnetization       =     3.00 Bohr mag/cell
     absolute magnetization    =    51.73 Bohr mag/cell

     iteration #162     ecut=   350.00 Ry     beta= 0.20
     Davidson diagonalization with overlap
     ethr =  4.18E-09,  avg # of iterations =  2.7

     total cpu time spent up to now is   135245.7 secs

     total energy              =   -7251.43679139 Ry
     Harris-Foulkes estimate   =   -7251.43680534 Ry
     estimated scf accuracy    <       0.00003591 Ry

     total magnetization       =     3.00 Bohr mag/cell
     absolute magnetization    =    51.73 Bohr mag/cell

     iteration #163     ecut=   350.00 Ry     beta= 0.20
     Davidson diagonalization with overlap
     ethr =  4.18E-09,  avg # of iterations =  1.6

     total cpu time spent up to now is   136018.3 secs

     total energy              =   -7251.43679773 Ry
     Harris-Foulkes estimate   =   -7251.43679508 Ry
     estimated scf accuracy    <       0.00003842 Ry

     total magnetization       =     3.00 Bohr mag/cell
     absolute magnetization    =    51.72 Bohr mag/cell

     iteration #164     ecut=   350.00 Ry     beta= 0.20
     Davidson diagonalization with overlap
     ethr =  4.18E-09,  avg # of iterations =  1.5

     total cpu time spent up to now is   136790.8 secs

     total energy              =   -7251.43680546 Ry
     Harris-Foulkes estimate   =   -7251.43679988 Ry
     estimated scf accuracy    <       0.00003869 Ry

     total magnetization       =     3.00 Bohr mag/cell
     absolute magnetization    =    51.73 Bohr mag/cell

     iteration #165     ecut=   350.00 Ry     beta= 0.20
     Davidson diagonalization with overlap
     ethr =  4.18E-09,  avg # of iterations =  2.0

     total cpu time spent up to now is   137582.7 secs

     total energy              =   -7251.43677551 Ry
     Harris-Foulkes estimate   =   -7251.43681513 Ry
     estimated scf accuracy    <       0.00003521 Ry

     total magnetization       =     3.00 Bohr mag/cell
     absolute magnetization    =    51.72 Bohr mag/cell

     iteration #166     ecut=   350.00 Ry     beta= 0.20
     Davidson diagonalization with overlap
     ethr =  4.18E-09,  avg # of iterations =  2.0

     total cpu time spent up to now is   138385.0 secs

     total energy              =   -7251.43675061 Ry
     Harris-Foulkes estimate   =   -7251.43679605 Ry
     estimated scf accuracy    <       0.00003462 Ry

     total magnetization       =     3.00 Bohr mag/cell
     absolute magnetization    =    51.72 Bohr mag/cell

     iteration #167     ecut=   350.00 Ry     beta= 0.20
     Davidson diagonalization with overlap
     ethr =  4.18E-09,  avg # of iterations =  2.1

     total cpu time spent up to now is   139197.5 secs

     total energy              =   -7251.43678953 Ry
     Harris-Foulkes estimate   =   -7251.43677345 Ry
     estimated scf accuracy    <       0.00003590 Ry

     total magnetization       =     3.00 Bohr mag/cell
     absolute magnetization    =    51.72 Bohr mag/cell

     iteration #168     ecut=   350.00 Ry     beta= 0.20
     Davidson diagonalization with overlap
     ethr =  4.18E-09,  avg # of iterations =  2.0

     total cpu time spent up to now is   139988.0 secs

     total energy              =   -7251.43680980 Ry
     Harris-Foulkes estimate   =   -7251.43680273 Ry
     estimated scf accuracy    <       0.00003323 Ry

     total magnetization       =     3.00 Bohr mag/cell
     absolute magnetization    =    51.72 Bohr mag/cell

     iteration #169     ecut=   350.00 Ry     beta= 0.20
     Davidson diagonalization with overlap
     ethr =  4.18E-09,  avg # of iterations =  2.2

     total cpu time spent up to now is   140820.1 secs

     total energy              =   -7251.43683807 Ry
     Harris-Foulkes estimate   =   -7251.43682278 Ry
     estimated scf accuracy    <       0.00003003 Ry

     total magnetization       =     3.00 Bohr mag/cell
     absolute magnetization    =    51.72 Bohr mag/cell

     iteration #170     ecut=   350.00 Ry     beta= 0.20
     Davidson diagonalization with overlap
     ethr =  4.07E-09,  avg # of iterations =  2.0

     total cpu time spent up to now is   141598.8 secs

     total energy              =   -7251.43684156 Ry
     Harris-Foulkes estimate   =   -7251.43684469 Ry
     estimated scf accuracy    <       0.00002951 Ry

     total magnetization       =     3.00 Bohr mag/cell
     absolute magnetization    =    51.72 Bohr mag/cell

     iteration #171     ecut=   350.00 Ry     beta= 0.20
     Davidson diagonalization with overlap
     ethr =  4.00E-09,  avg # of iterations =  3.5

     total cpu time spent up to now is   142519.1 secs

     total energy              =   -7251.43688760 Ry
     Harris-Foulkes estimate   =   -7251.43692288 Ry
     estimated scf accuracy    <       0.00002924 Ry

     total magnetization       =     3.00 Bohr mag/cell
     absolute magnetization    =    51.72 Bohr mag/cell

     iteration #172     ecut=   350.00 Ry     beta= 0.20
     Davidson diagonalization with overlap
     ethr =  3.97E-09,  avg # of iterations =  3.0

     total cpu time spent up to now is   143475.0 secs

     total energy              =   -7251.43701812 Ry
     Harris-Foulkes estimate   =   -7251.43702322 Ry
     estimated scf accuracy    <       0.00002893 Ry

     total magnetization       =     3.00 Bohr mag/cell
     absolute magnetization    =    51.72 Bohr mag/cell

     iteration #173     ecut=   350.00 Ry     beta= 0.20
     Davidson diagonalization with overlap
     ethr =  3.93E-09,  avg # of iterations =  1.0

     total cpu time spent up to now is   144244.0 secs

     total energy              =   -7251.43694319 Ry
     Harris-Foulkes estimate   =   -7251.43701849 Ry
     estimated scf accuracy    <       0.00002903 Ry

     total magnetization       =     3.00 Bohr mag/cell
     absolute magnetization    =    51.72 Bohr mag/cell

     iteration #174     ecut=   350.00 Ry     beta= 0.20
     Davidson diagonalization with overlap
     ethr =  3.93E-09,  avg # of iterations =  3.1

     total cpu time spent up to now is   145262.6 secs

     total energy              =   -7251.43697169 Ry
     Harris-Foulkes estimate   =   -7251.43713411 Ry
     estimated scf accuracy    <       0.00002945 Ry

     total magnetization       =     3.00 Bohr mag/cell
     absolute magnetization    =    51.72 Bohr mag/cell

     iteration #175     ecut=   350.00 Ry     beta= 0.20
     Davidson diagonalization with overlap
     ethr =  3.93E-09,  avg # of iterations =  3.8

     total cpu time spent up to now is   146324.6 secs

     total energy              =   -7251.43726817 Ry
     Harris-Foulkes estimate   =   -7251.43727486 Ry
     estimated scf accuracy    <       0.00003006 Ry

     total magnetization       =     3.00 Bohr mag/cell
     absolute magnetization    =    51.72 Bohr mag/cell

     iteration #176     ecut=   350.00 Ry     beta= 0.20
     Davidson diagonalization with overlap
     ethr =  3.93E-09,  avg # of iterations =  2.0

     total cpu time spent up to now is   147105.7 secs

     total energy              =   -7251.43714776 Ry
     Harris-Foulkes estimate   =   -7251.43727205 Ry
     estimated scf accuracy    <       0.00002967 Ry

     total magnetization       =     3.00 Bohr mag/cell
     absolute magnetization    =    51.72 Bohr mag/cell

     iteration #177     ecut=   350.00 Ry     beta= 0.20
     Davidson diagonalization with overlap
     ethr =  3.93E-09,  avg # of iterations =  2.8

     total cpu time spent up to now is   147969.7 secs

     total energy              =   -7251.43720814 Ry
     Harris-Foulkes estimate   =   -7251.43720720 Ry
     estimated scf accuracy    <       0.00002983 Ry

     total magnetization       =     3.00 Bohr mag/cell
     absolute magnetization    =    51.72 Bohr mag/cell

     iteration #178     ecut=   350.00 Ry     beta= 0.20
     Davidson diagonalization with overlap
     ethr =  3.93E-09,  avg # of iterations =  1.0

     total cpu time spent up to now is   148736.2 secs

     total energy              =   -7251.43714521 Ry
     Harris-Foulkes estimate   =   -7251.43720842 Ry
     estimated scf accuracy    <       0.00002977 Ry

     total magnetization       =     3.00 Bohr mag/cell
     absolute magnetization    =    51.72 Bohr mag/cell

     iteration #179     ecut=   350.00 Ry     beta= 0.20
     Davidson diagonalization with overlap
     ethr =  3.93E-09,  avg # of iterations =  2.9

     total cpu time spent up to now is   149620.4 secs

     total energy              =   -7251.43701916 Ry
     Harris-Foulkes estimate   =   -7251.43718158 Ry
     estimated scf accuracy    <       0.00003324 Ry

     total magnetization       =     3.00 Bohr mag/cell
     absolute magnetization    =    51.72 Bohr mag/cell

     iteration #180     ecut=   350.00 Ry     beta= 0.20
     Davidson diagonalization with overlap
     ethr =  3.93E-09,  avg # of iterations =  3.0

     total cpu time spent up to now is   150519.1 secs

     total energy              =   -7251.43711028 Ry
     Harris-Foulkes estimate   =   -7251.43710372 Ry
     estimated scf accuracy    <       0.00003235 Ry

     total magnetization       =     3.00 Bohr mag/cell
     absolute magnetization    =    51.72 Bohr mag/cell

     iteration #181     ecut=   350.00 Ry     beta= 0.20
     Davidson diagonalization with overlap
     ethr =  3.93E-09,  avg # of iterations =  2.5

     total cpu time spent up to now is   151370.6 secs

     total energy              =   -7251.43702026 Ry
     Harris-Foulkes estimate   =   -7251.43716273 Ry
     estimated scf accuracy    <       0.00003185 Ry

     total magnetization       =     3.00 Bohr mag/cell
     absolute magnetization    =    51.72 Bohr mag/cell

     iteration #182     ecut=   350.00 Ry     beta= 0.20
     Davidson diagonalization with overlap
     ethr =  3.93E-09,  avg # of iterations =  3.4

     total cpu time spent up to now is   152379.7 secs

     total energy              =   -7251.43713836 Ry
     Harris-Foulkes estimate   =   -7251.43712673 Ry
     estimated scf accuracy    <       0.00002801 Ry

     total magnetization       =     3.00 Bohr mag/cell
     absolute magnetization    =    51.72 Bohr mag/cell

     iteration #183     ecut=   350.00 Ry     beta= 0.20
     Davidson diagonalization with overlap
     ethr =  3.80E-09,  avg # of iterations =  2.5

     total cpu time spent up to now is   153228.2 secs

     total energy              =   -7251.43707539 Ry
     Harris-Foulkes estimate   =   -7251.43718245 Ry
     estimated scf accuracy    <       0.00002752 Ry

     total magnetization       =     3.00 Bohr mag/cell
     absolute magnetization    =    51.72 Bohr mag/cell

     iteration #184     ecut=   350.00 Ry     beta= 0.20
     Davidson diagonalization with overlap
     ethr =  3.73E-09,  avg # of iterations =  3.9

     total cpu time spent up to now is   154276.5 secs

     total energy              =   -7251.43732721 Ry
     Harris-Foulkes estimate   =   -7251.43731403 Ry
     estimated scf accuracy    <       0.00002752 Ry

     total magnetization       =     3.00 Bohr mag/cell
     absolute magnetization    =    51.73 Bohr mag/cell

     iteration #185     ecut=   350.00 Ry     beta= 0.20
     Davidson diagonalization with overlap
     ethr =  3.73E-09,  avg # of iterations =  2.5

     total cpu time spent up to now is   155114.5 secs

     total energy              =   -7251.43729437 Ry
     Harris-Foulkes estimate   =   -7251.43736756 Ry
     estimated scf accuracy    <       0.00002723 Ry

     total magnetization       =     3.00 Bohr mag/cell
     absolute magnetization    =    51.73 Bohr mag/cell

     iteration #186     ecut=   350.00 Ry     beta= 0.20
     Davidson diagonalization with overlap
     ethr =  3.69E-09,  avg # of iterations =  3.8

     total cpu time spent up to now is   156144.7 secs

     total energy              =   -7251.43743757 Ry
     Harris-Foulkes estimate   =   -7251.43748381 Ry
     estimated scf accuracy    <       0.00002728 Ry

     total magnetization       =     3.00 Bohr mag/cell
     absolute magnetization    =    51.73 Bohr mag/cell

     iteration #187     ecut=   350.00 Ry     beta= 0.20
     Davidson diagonalization with overlap
     ethr =  3.69E-09,  avg # of iterations =  3.0

     total cpu time spent up to now is   157138.2 secs

     total energy              =   -7251.43759933 Ry
     Harris-Foulkes estimate   =   -7251.43758507 Ry
     estimated scf accuracy    <       0.00002690 Ry

     total magnetization       =     3.00 Bohr mag/cell
     absolute magnetization    =    51.74 Bohr mag/cell

     iteration #188     ecut=   350.00 Ry     beta= 0.20
     Davidson diagonalization with overlap
     ethr =  3.65E-09,  avg # of iterations =  2.0

     total cpu time spent up to now is   157931.7 secs

     total energy              =   -7251.43757071 Ry
     Harris-Foulkes estimate   =   -7251.43761305 Ry
     estimated scf accuracy    <       0.00002696 Ry

     total magnetization       =     3.00 Bohr mag/cell
     absolute magnetization    =    51.74 Bohr mag/cell

     iteration #189     ecut=   350.00 Ry     beta= 0.20
     Davidson diagonalization with overlap
     ethr =  3.65E-09,  avg # of iterations =  2.0

     total cpu time spent up to now is   158723.0 secs

     total energy              =   -7251.43741377 Ry
     Harris-Foulkes estimate   =   -7251.43758393 Ry
     estimated scf accuracy    <       0.00002697 Ry

     total magnetization       =     3.00 Bohr mag/cell
     absolute magnetization    =    51.74 Bohr mag/cell

     iteration #190     ecut=   350.00 Ry     beta= 0.20
     Davidson diagonalization with overlap
     ethr =  3.65E-09,  avg # of iterations =  3.1

     total cpu time spent up to now is   159702.1 secs

     total energy              =   -7251.43751020 Ry
     Harris-Foulkes estimate   =   -7251.43751004 Ry
     estimated scf accuracy    <       0.00002948 Ry

     total magnetization       =     3.00 Bohr mag/cell
     absolute magnetization    =    51.73 Bohr mag/cell

     iteration #191     ecut=   350.00 Ry     beta= 0.20
     Davidson diagonalization with overlap

     Maximum CPU time exceeded

     max_seconds     =  160000.00
     elapsed seconds =  160021.53
     Calculation stopped in k-point loop, point #     8
     Calculation stopped in scf loop at iteration #   190

     Writing output data file pwscf.save/
 
     init_run     :    339.56s CPU    346.09s WALL (       1 calls)
     electrons    : 155811.58s CPU 159781.81s WALL (       1 calls)

     Called by init_run:
     wfcinit      :    327.30s CPU    331.94s WALL (       1 calls)
     potinit      :      5.33s CPU      5.44s WALL (       1 calls)
     hinit0       :      3.63s CPU      3.70s WALL (       1 calls)

     Called by electrons:
     c_bands      : 132121.93s CPU 138507.05s WALL (     191 calls)
     sum_band     :  23609.32s CPU  24074.03s WALL (     190 calls)
     v_of_rho     :     19.59s CPU     21.01s WALL (     191 calls)
     mix_rho      :     60.57s CPU     69.71s WALL (     190 calls)

     Called by c_bands:
     init_us_2    :    301.59s CPU    309.49s WALL (    6120 calls)
     cegterg      : 131132.78s CPU 134238.48s WALL (    3048 calls)

     Called by sum_band:

     Called by *egterg:
     h_psi        :  95234.43s CPU  97293.08s WALL (   10285 calls)
     g_psi        :    185.01s CPU    188.56s WALL (    7221 calls)
     cdiaghg      :   3054.50s CPU   3160.26s WALL (   10269 calls)

     Called by h_psi:
     h_psi:pot    :  87793.17s CPU  89453.65s WALL (   10285 calls)
     h_psi:calbec :   4662.87s CPU   4744.51s WALL (   10285 calls)
     vloc_psi     :  78437.35s CPU  79934.93s WALL (   10285 calls)
     add_vuspsi   :   4692.72s CPU   4774.07s WALL (   10285 calls)
     vhpsi        :   7042.75s CPU   7162.01s WALL (   10285 calls)

     General routines
     calbec       :   6435.70s CPU   6549.43s WALL (   23626 calls)
     fft          :     31.00s CPU     31.80s WALL (     954 calls)
     ffts         :      9.78s CPU      9.97s WALL (     380 calls)
     fftw         :  82321.21s CPU  83893.95s WALL ( 7111250 calls)
     davcio       :      2.59s CPU   2368.51s WALL (      50 calls)
 
     Parallel routines
     fft_scatt_xy :  20507.24s CPU  20895.23s WALL ( 7112584 calls)
     fft_scatt_yz :  19401.77s CPU  19764.48s WALL ( 7112584 calls)

     Hubbard U routines
     new_ns       :    830.60s CPU    849.56s WALL (     190 calls)
     vhpsi        :   7042.75s CPU   7162.01s WALL (   10285 calls)
 
     PWSCF        :   1d19h22m CPU   1d21h17m WALL

 
   This run was terminated on:   9: 1:53  13Oct2021            

=------------------------------------------------------------------------------=
   JOB DONE.
=------------------------------------------------------------------------------=
