/usr/common/software/espresso/6.8-scalapack/hsw/intel/bin/pw.x

     Program PWSCF v.6.8 starts on 16Nov2021 at 16: 8: 0 

     This program is part of the open-source Quantum ESPRESSO suite
     for quantum simulation of materials; please cite
         "P. Giannozzi et al., J. Phys.:Condens. Matter 21 395502 (2009);
         "P. Giannozzi et al., J. Phys.:Condens. Matter 29 465901 (2017);
         "P. Giannozzi et al., J. Chem. Phys. 152 154105 (2020);
          URL http://www.quantum-espresso.org", 
     in publications or presentations arising from this work. More details at
     http://www.quantum-espresso.org/quote

     Parallel version (MPI & OpenMP), running on    2048 processor cores
     Number of MPI processes:              2048
     Threads/MPI process:                     1

     MPI processes distributed on    64 nodes
     band groups division:  nbgrp     =      16
     R & G space division:  proc/nbgrp/npool/nimage =     128
     124360 MiB available memory on the printing compute node when the environment starts
 
     Reading input from scf.in

     Current dimensions of program PWSCF are:
     Max number of different atomic species (ntypx) = 10
     Max number of k-points (npk) =  40000
     Max angular momentum in pseudopotentials (lmaxx) =  4

     IMPORTANT: XC functional enforced from input :
     Exchange-correlation= PBE0
                           (   6   4   8   4   0   0   0)
     EXX-fraction              =        0.25
     Any further DFT definition will be discarded
     Please, verify this is what you really want

     Message from routine setup :
     BEWARE: nonlinear core correction is not consistent with hybrid XC

     Fixed quantization axis for GGA:     0.000000    0.000000    1.000000
     EXX: q-point mesh:     1    1    1
     EXX: setup a grid of 11 q-points centered on each k-point
     (k+q)-points:
   0.0000000   0.0000000   0.0000000         1    1
   0.0000000   0.2309401  -0.0105932         2    1
   0.0000000   0.4618802  -0.0211864         3    1
   0.2000000   0.3464102  -0.0000000         4    1
   0.2000000   0.5773503  -0.0105932         5    1
   0.2000000  -0.3464102   0.0317795         6    1
   0.2000000  -0.1154701   0.0211864         7    1
   0.4000000   0.6928203  -0.0000000         8    1
   0.4000000  -0.2309401   0.0423727         9    1
   0.2000000  -0.5773503   0.0105932        10    1
   0.2000000   0.3464102  -0.0317795        11    1

     Subspace diagonalization in iterative solution of the eigenvalue problem:
     one sub-group per band group will be used
     scalapack distributed-memory algorithm (size of sub-group: 11* 11 procs)

 
     Parallelization info
     --------------------
     sticks:   dense  smooth     PW     G-vecs:    dense   smooth      PW
     Min          31      31      8                10278    10278    1430
     Max          32      32      9                10336    10336    1490
     Sum        4069    4069   1099              1319857  1319857  186139
 
     Using Slab Decomposition
 


     bravais-lattice index     =            0
     lattice parameter (alat)  =       8.1895  a.u.
     unit-cell volume          =    2993.5487 (a.u.)^3
     number of atoms/cell      =           14
     number of atomic types    =            4
     number of electrons       =       218.00
     number of Kohn-Sham states=          220
     kinetic-energy cutoff     =     220.0000  Ry
     charge density cutoff     =     880.0000  Ry
     cutoff for Fock operator  =     880.0000  Ry
     scf convergence threshold =      1.0E-04
     mixing beta               =       0.2500
     number of iterations used =            4  plain     mixing
     Exchange-correlation= PBE0
                           (   6   4   8   4   0   0   0)
     EXX-fraction              =        0.25
     Noncollinear calculation with spin-orbit


     celldm(1)=   8.189506  celldm(2)=   0.000000  celldm(3)=   0.000000
     celldm(4)=   0.000000  celldm(5)=   0.000000  celldm(6)=   0.000000

     crystal axes: (cart. coord. in units of alat)
               a(1) = (   1.000000   0.000000   0.000000 )  
               a(2) = (  -0.500000   0.866025   0.000000 )  
               a(3) = (  -0.500000   0.288675   6.293360 )  

     reciprocal axes: (cart. coord. in units 2 pi/alat)
               b(1) = (  1.000000  0.577350  0.052966 )  
               b(2) = (  0.000000  1.154701 -0.052966 )  
               b(3) = (  0.000000  0.000000  0.158898 )  


     PseudoPot. # 1 for Bi read from file:
     ./Bi.upf
     MD5 check sum: 260977096fd1df4b879f04c556a28fcb
     Pseudo is Norm-conserving + core correction, Zval = 15.0
     Generated using ONCVPSP code by D. R. Hamann
     Using radial grid of 1562 points, 10 beta functions with: 
                l(1) =   0
                l(2) =   0
                l(3) =   1
                l(4) =   1
                l(5) =   1
                l(6) =   1
                l(7) =   2
                l(8) =   2
                l(9) =   2
               l(10) =   2

     PseudoPot. # 2 for Mn read from file:
     ./Mn.upf
     MD5 check sum: ae71e1481ef25a952ba54bed1e0db183
     Pseudo is Norm-conserving + core correction, Zval = 15.0
     Generated using ONCVPSP code by D. R. Hamann
     Using radial grid of 1464 points,  6 beta functions with: 
                l(1) =   0
                l(2) =   0
                l(3) =   1
                l(4) =   1
                l(5) =   2
                l(6) =   2

     PseudoPot. # 3 for Mn read from file:
     ./Mn.upf
     MD5 check sum: ae71e1481ef25a952ba54bed1e0db183
     Pseudo is Norm-conserving + core correction, Zval = 15.0
     Generated using ONCVPSP code by D. R. Hamann
     Using radial grid of 1464 points,  6 beta functions with: 
                l(1) =   0
                l(2) =   0
                l(3) =   1
                l(4) =   1
                l(5) =   2
                l(6) =   2

     PseudoPot. # 4 for Te read from file:
     ./Te.upf
     MD5 check sum: d198e370297ac1d7edee156d0fe975c4
     Pseudo is Norm-conserving + core correction, Zval = 16.0
     Generated using ONCVPSP code by D. R. Hamann
     Using radial grid of 1324 points, 10 beta functions with: 
                l(1) =   0
                l(2) =   0
                l(3) =   1
                l(4) =   1
                l(5) =   1
                l(6) =   1
                l(7) =   2
                l(8) =   2
                l(9) =   2
               l(10) =   2

     atomic species   valence    mass     pseudopotential
        Bi            15.00   208.98000     Bi( 1.00)
        Mn1           15.00    54.93800     Mn( 1.00)
        Mn2           15.00    54.93800     Mn( 1.00)
        Te            16.00   127.60000     Te( 1.00)

     No symmetry found


                                    s                        frac. trans.

      isym =  1     identity                                     

 Time Reversal            0
 cryst.   s( 1) = (     1          0          0      )
                  (     0          1          0      )
                  (     0          0          1      )

 cart.    s( 1) = (  1.0000000  0.0000000 -0.0000000 )
                  (  0.0000000  1.0000000  0.0000000 )
                  (  0.0000000  0.0000000  1.0000000 )


   Cartesian axes

     site n.     atom                  positions (alat units)
         1           Mn1 tau(   1) = (   0.0000000   0.0000000   0.0000000  )
         2           Mn2 tau(   2) = (   0.0000000   0.5773503   3.1466799  )
         3           Bi  tau(   3) = (  -0.5000000   0.8660254   4.0108841  )
         4           Bi  tau(   4) = (   0.5000000   0.2886751   0.8642042  )
         5           Bi  tau(   5) = (   0.5000000   0.2886751   2.2824757  )
         6           Bi  tau(   6) = (  -0.5000000   0.8660254   5.4291556  )
         7           Te  tau(   7) = (  -0.5000000   0.8660254   1.2586405  )
         8           Te  tau(   8) = (   0.5000000   0.2886751   5.0347193  )
         9           Te  tau(   9) = (   0.0000000   0.5773503   4.4053204  )
        10           Te  tau(  10) = (   0.0000000   0.5773503   1.8880394  )
        11           Te  tau(  11) = (  -0.5000000   0.8660254   2.7787701  )
        12           Te  tau(  12) = (   0.5000000   0.2886751   3.5145897  )
        13           Te  tau(  13) = (   0.0000000   0.5773503   5.9254500  )
        14           Te  tau(  14) = (   0.0000000   0.5773503   0.3679098  )

   Crystallographic axes

     site n.     atom                  positions (cryst. coord.)
         1           Mn1 tau(   1) = (  0.0000000  0.0000000  0.0000000  )
         2           Mn2 tau(   2) = (  0.5000000  0.5000000  0.5000000  )
         3           Bi  tau(   3) = (  0.2124400  0.7875600  0.6373200  )
         4           Bi  tau(   4) = (  0.7124400  0.2875600  0.1373200  )
         5           Bi  tau(   5) = (  0.7875600  0.2124400  0.3626800  )
         6           Bi  tau(   6) = (  0.2875600  0.7124400  0.8626800  )
         7           Te  tau(   7) = (  0.0666650  0.9333350  0.1999950  )
         8           Te  tau(   8) = (  0.9333350  0.0666650  0.8000050  )
         9           Te  tau(   9) = (  0.5666650  0.4333350  0.6999950  )
        10           Te  tau(  10) = (  0.4333350  0.5666650  0.3000050  )
        11           Te  tau(  11) = (  0.1471800  0.8528200  0.4415400  )
        12           Te  tau(  12) = (  0.8528200  0.1471800  0.5584600  )
        13           Te  tau(  13) = (  0.6471800  0.3528200  0.9415400  )
        14           Te  tau(  14) = (  0.3528200  0.6471800  0.0584600  )

     number of k points=    11
                       cart. coord. in units 2pi/alat
        k(    1) = (   0.0000000   0.0000000   0.0000000), wk =   0.0400000
        k(    2) = (   0.0000000   0.2309401  -0.0105932), wk =   0.1600000
        k(    3) = (   0.0000000   0.4618802  -0.0211864), wk =   0.1600000
        k(    4) = (   0.2000000   0.3464102  -0.0000000), wk =   0.0800000
        k(    5) = (   0.2000000   0.5773503  -0.0105932), wk =   0.0800000
        k(    6) = (   0.2000000  -0.3464102   0.0317795), wk =   0.0800000
        k(    7) = (   0.2000000  -0.1154701   0.0211864), wk =   0.0800000
        k(    8) = (   0.4000000   0.6928203  -0.0000000), wk =   0.0800000
        k(    9) = (   0.4000000  -0.2309401   0.0423727), wk =   0.0800000
        k(   10) = (   0.2000000  -0.5773503   0.0105932), wk =   0.0800000
        k(   11) = (   0.2000000   0.3464102  -0.0317795), wk =   0.0800000

                       cryst. coord.
        k(    1) = (   0.0000000   0.0000000   0.0000000), wk =   0.0400000
        k(    2) = (   0.0000000   0.2000000   0.0000000), wk =   0.1600000
        k(    3) = (   0.0000000   0.4000000   0.0000000), wk =   0.1600000
        k(    4) = (   0.2000000   0.2000000  -0.0000000), wk =   0.0800000
        k(    5) = (   0.2000000   0.4000000  -0.0000000), wk =   0.0800000
        k(    6) = (   0.2000000  -0.4000000   0.0000000), wk =   0.0800000
        k(    7) = (   0.2000000  -0.2000000  -0.0000000), wk =   0.0800000
        k(    8) = (   0.4000000   0.4000000  -0.0000000), wk =   0.0800000
        k(    9) = (   0.4000000  -0.4000000  -0.0000000), wk =   0.0800000
        k(   10) = (   0.2000000  -0.6000000  -0.2000000), wk =   0.0800000
        k(   11) = (   0.2000000   0.2000000  -0.2000000), wk =   0.0800000

     Dense  grid:  1319857 G-vectors     FFT dimensions: (  80,  80, 500)

     Dynamical RAM for                 wfc:       8.65 MB

     Dynamical RAM for     wfc (w. buffer):     103.77 MB

     Dynamical RAM for                 EXX:     354.37 MB

     Dynamical RAM for           str. fact:       0.63 MB

     Dynamical RAM for           local pot:       0.00 MB

     Dynamical RAM for          nlocal pot:       8.73 MB

     Dynamical RAM for                qrad:      25.76 MB

     Dynamical RAM for          rho,v,vnew:       4.24 MB

     Dynamical RAM for               rhoin:       1.41 MB

     Dynamical RAM for            rho*nmix:       5.04 MB

     Dynamical RAM for           G-vectors:       0.67 MB

     Dynamical RAM for          h,s,v(r/c):       0.07 MB

     Dynamical RAM for          <psi|beta>:       2.98 MB

     Dynamical RAM for                 psi:      17.29 MB

     Dynamical RAM for                hpsi:      17.29 MB

     Dynamical RAM for      wfcinit/wfcrot:      16.60 MB

     Estimated static dynamical RAM per process >     501.92 MB

     Estimated max dynamical RAM per process >     544.61 MB

     Estimated total dynamical RAM >    1089.22 GB
     Generating pointlists ...
     new r_m :   0.2884 (alat units)  2.3621 (a.u.) for type    1
     new r_m :   0.2824 (alat units)  2.3127 (a.u.) for type    2
     new r_m :   0.2824 (alat units)  2.3127 (a.u.) for type    3
     new r_m :   0.2824 (alat units)  2.3127 (a.u.) for type    4

     Initial potential from superposition of free atoms

     starting charge  217.99288, renormalised to  218.00000

 ==============================================================================
     atom number    1 relative position :    0.0000   0.0000   0.0000
     charge :    13.702981  (integrated on a sphere of radius 0.282)
     magnetization :          0.000000    0.000000   13.429825
     magnetization/charge:    0.000000    0.000000    0.980066
     polar coord.: r, theta, phi [deg] :    13.429825    0.000000  360.000000

 ==============================================================================

 ==============================================================================
     atom number    2 relative position :    0.0000   0.5774   3.1467
     charge :    13.702981  (integrated on a sphere of radius 0.282)
     magnetization :          0.000000    0.000000  -13.429825
     magnetization/charge:    0.000000    0.000000   -0.980066
     polar coord.: r, theta, phi [deg] :    13.429825  180.000000  360.000000

 ==============================================================================

 ==============================================================================
     atom number    3 relative position :   -0.5000   0.8660   4.0109
     charge :    12.737539  (integrated on a sphere of radius 0.288)
     magnetization :          0.000000    0.000000   -0.002345
     magnetization/charge:    0.000000    0.000000   -0.000184
     polar coord.: r, theta, phi [deg] :     0.002345  180.000000  360.000000

 ==============================================================================

 ==============================================================================
     atom number    4 relative position :    0.5000   0.2887   0.8642
     charge :    12.737539  (integrated on a sphere of radius 0.288)
     magnetization :          0.000000    0.000000    0.002345
     magnetization/charge:    0.000000    0.000000    0.000184
     polar coord.: r, theta, phi [deg] :     0.002345    0.000000  360.000000

 ==============================================================================

 ==============================================================================
     atom number    5 relative position :    0.5000   0.2887   2.2825
     charge :    12.737539  (integrated on a sphere of radius 0.288)
     magnetization :          0.000000    0.000000   -0.002345
     magnetization/charge:    0.000000    0.000000   -0.000184
     polar coord.: r, theta, phi [deg] :     0.002345  180.000000  360.000000

 ==============================================================================

 ==============================================================================
     atom number    6 relative position :   -0.5000   0.8660   5.4292
     charge :    12.737539  (integrated on a sphere of radius 0.288)
     magnetization :          0.000000    0.000000    0.002345
     magnetization/charge:    0.000000    0.000000    0.000184
     polar coord.: r, theta, phi [deg] :     0.002345    0.000000  360.000000

 ==============================================================================

 ==============================================================================
     atom number    7 relative position :   -0.5000   0.8660   1.2586
     charge :    13.697319  (integrated on a sphere of radius 0.282)
     magnetization :          0.000000    0.000000    0.000053
     magnetization/charge:    0.000000    0.000000    0.000004
     polar coord.: r, theta, phi [deg] :     0.000053    0.000000  360.000000

 ==============================================================================

 ==============================================================================
     atom number    8 relative position :    0.5000   0.2887   5.0347
     charge :    13.697319  (integrated on a sphere of radius 0.282)
     magnetization :          0.000000    0.000000    0.000053
     magnetization/charge:    0.000000    0.000000    0.000004
     polar coord.: r, theta, phi [deg] :     0.000053    0.000000  360.000000

 ==============================================================================

 ==============================================================================
     atom number    9 relative position :    0.0000   0.5774   4.4053
     charge :    13.697319  (integrated on a sphere of radius 0.282)
     magnetization :          0.000000    0.000000   -0.000053
     magnetization/charge:    0.000000    0.000000   -0.000004
     polar coord.: r, theta, phi [deg] :     0.000053  180.000000  360.000000

 ==============================================================================

 ==============================================================================
     atom number   10 relative position :    0.0000   0.5774   1.8880
     charge :    13.697319  (integrated on a sphere of radius 0.282)
     magnetization :          0.000000    0.000000   -0.000053
     magnetization/charge:    0.000000    0.000000   -0.000004
     polar coord.: r, theta, phi [deg] :     0.000053  180.000000  360.000000

 ==============================================================================

 ==============================================================================
     atom number   11 relative position :   -0.5000   0.8660   2.7788
     charge :    13.726863  (integrated on a sphere of radius 0.282)
     magnetization :          0.000000    0.000000   -0.106707
     magnetization/charge:    0.000000    0.000000   -0.007774
     polar coord.: r, theta, phi [deg] :     0.106707  180.000000  360.000000

 ==============================================================================

 ==============================================================================
     atom number   12 relative position :    0.5000   0.2887   3.5146
     charge :    13.726863  (integrated on a sphere of radius 0.282)
     magnetization :          0.000000    0.000000   -0.106707
     magnetization/charge:    0.000000    0.000000   -0.007774
     polar coord.: r, theta, phi [deg] :     0.106707  180.000000  360.000000

 ==============================================================================

 ==============================================================================
     atom number   13 relative position :    0.0000   0.5774   5.9254
     charge :    13.726863  (integrated on a sphere of radius 0.282)
     magnetization :          0.000000    0.000000    0.106707
     magnetization/charge:    0.000000    0.000000    0.007774
     polar coord.: r, theta, phi [deg] :     0.106707    0.000000  360.000000

 ==============================================================================

 ==============================================================================
     atom number   14 relative position :    0.0000   0.5774   0.3679
     charge :    13.726863  (integrated on a sphere of radius 0.282)
     magnetization :          0.000000    0.000000    0.106707
     magnetization/charge:    0.000000    0.000000    0.007774
     polar coord.: r, theta, phi [deg] :     0.106707    0.000000  360.000000

 ==============================================================================
     Starting wfcs are  256 randomized atomic wfcs

     total cpu time spent up to now is       12.3 secs

     Self-consistent Calculation

     iteration #  1     ecut=   220.00 Ry     beta= 0.25
     Davidson diagonalization with overlap

---- Real-time Memory Report at c_bands before calling an iterative solver
           257 MiB given to the printing process from OS
             0 MiB allocation reported by mallinfo(arena+hblkhd)
        117849 MiB available memory on the node where the printing process lives
------------------
     ethr =  1.00E-02,  avg # of iterations =  2.0

     total cpu time spent up to now is       32.9 secs

     total energy              =   -2765.69609695 Ry
     estimated scf accuracy    <       5.49834197 Ry

     total magnetization       =    -0.00    -0.00     0.00 Bohr mag/cell
     absolute magnetization    =    11.51 Bohr mag/cell

     iteration #  2     ecut=   220.00 Ry     beta= 0.25
     Davidson diagonalization with overlap

---- Real-time Memory Report at c_bands before calling an iterative solver
           297 MiB given to the printing process from OS
             0 MiB allocation reported by mallinfo(arena+hblkhd)
        118291 MiB available memory on the node where the printing process lives
------------------
     ethr =  2.52E-03,  avg # of iterations =  2.0

     total cpu time spent up to now is       49.7 secs

     total energy              =   -2767.68678495 Ry
     estimated scf accuracy    <       2.94979824 Ry

     total magnetization       =    -0.00    -0.00    -0.00 Bohr mag/cell
     absolute magnetization    =    11.53 Bohr mag/cell

     iteration #  3     ecut=   220.00 Ry     beta= 0.25
     Davidson diagonalization with overlap

---- Real-time Memory Report at c_bands before calling an iterative solver
           297 MiB given to the printing process from OS
             0 MiB allocation reported by mallinfo(arena+hblkhd)
        117939 MiB available memory on the node where the printing process lives
------------------
     ethr =  1.35E-03,  avg # of iterations =  4.5

     total cpu time spent up to now is       69.9 secs

     total energy              =   -2767.84034256 Ry
     estimated scf accuracy    <       0.62068311 Ry

     total magnetization       =    -0.00     0.00     0.01 Bohr mag/cell
     absolute magnetization    =    11.43 Bohr mag/cell

     iteration #  4     ecut=   220.00 Ry     beta= 0.25
     Davidson diagonalization with overlap

---- Real-time Memory Report at c_bands before calling an iterative solver
           297 MiB given to the printing process from OS
             0 MiB allocation reported by mallinfo(arena+hblkhd)
        117738 MiB available memory on the node where the printing process lives
------------------
     ethr =  2.85E-04,  avg # of iterations =  8.0

     total cpu time spent up to now is       94.4 secs

     total energy              =   -2767.88786609 Ry
     estimated scf accuracy    <       1.65347555 Ry

     total magnetization       =    -0.00     0.00    -0.01 Bohr mag/cell
     absolute magnetization    =    10.97 Bohr mag/cell

     iteration #  5     ecut=   220.00 Ry     beta= 0.25
     Davidson diagonalization with overlap

---- Real-time Memory Report at c_bands before calling an iterative solver
           300 MiB given to the printing process from OS
             0 MiB allocation reported by mallinfo(arena+hblkhd)
        117504 MiB available memory on the node where the printing process lives
------------------
     c_bands:  3 eigenvalues not converged
     c_bands:  2 eigenvalues not converged
     c_bands:  1 eigenvalues not converged
     ethr =  2.85E-04,  avg # of iterations = 15.5

     total cpu time spent up to now is      126.6 secs

     total energy              =   -2767.96147156 Ry
     estimated scf accuracy    <       4.27271161 Ry

     total magnetization       =    -0.01     0.05    -0.13 Bohr mag/cell
     absolute magnetization    =    10.01 Bohr mag/cell

     iteration #  6     ecut=   220.00 Ry     beta= 0.25
     Davidson diagonalization with overlap

---- Real-time Memory Report at c_bands before calling an iterative solver
           303 MiB given to the printing process from OS
             0 MiB allocation reported by mallinfo(arena+hblkhd)
        117312 MiB available memory on the node where the printing process lives
------------------
     ethr =  2.85E-04,  avg # of iterations =  5.5

     total cpu time spent up to now is      146.3 secs

     total energy              =   -2767.93641269 Ry
     estimated scf accuracy    <       0.82208492 Ry

     total magnetization       =     0.00     0.00    -0.00 Bohr mag/cell
     absolute magnetization    =    10.93 Bohr mag/cell

     iteration #  7     ecut=   220.00 Ry     beta= 0.25
     Davidson diagonalization with overlap

---- Real-time Memory Report at c_bands before calling an iterative solver
           304 MiB given to the printing process from OS
             0 MiB allocation reported by mallinfo(arena+hblkhd)
        116654 MiB available memory on the node where the printing process lives
------------------
     ethr =  2.85E-04,  avg # of iterations = 10.8

     total cpu time spent up to now is      171.5 secs

     total energy              =   -2767.92537877 Ry
     estimated scf accuracy    <       2.66083401 Ry

     total magnetization       =    -0.01     0.00     0.10 Bohr mag/cell
     absolute magnetization    =    10.81 Bohr mag/cell

     iteration #  8     ecut=   220.00 Ry     beta= 0.25
     Davidson diagonalization with overlap

---- Real-time Memory Report at c_bands before calling an iterative solver
           305 MiB given to the printing process from OS
             0 MiB allocation reported by mallinfo(arena+hblkhd)
        116434 MiB available memory on the node where the printing process lives
------------------
     ethr =  2.85E-04,  avg # of iterations =  8.5

     total cpu time spent up to now is      193.3 secs

     total energy              =   -2768.00252814 Ry
     estimated scf accuracy    <       0.05928451 Ry

     total magnetization       =    -0.02     0.01     0.02 Bohr mag/cell
     absolute magnetization    =    11.24 Bohr mag/cell

     iteration #  9     ecut=   220.00 Ry     beta= 0.25
     Davidson diagonalization with overlap

---- Real-time Memory Report at c_bands before calling an iterative solver
           305 MiB given to the printing process from OS
             0 MiB allocation reported by mallinfo(arena+hblkhd)
        116423 MiB available memory on the node where the printing process lives
------------------
     ethr =  2.72E-05,  avg # of iterations = 10.4

     total cpu time spent up to now is      224.9 secs

     total energy              =   -2768.01885958 Ry
     estimated scf accuracy    <       0.02508984 Ry

     total magnetization       =     0.00    -0.00    -0.01 Bohr mag/cell
     absolute magnetization    =    11.45 Bohr mag/cell

     iteration # 10     ecut=   220.00 Ry     beta= 0.25
     Davidson diagonalization with overlap

---- Real-time Memory Report at c_bands before calling an iterative solver
           308 MiB given to the printing process from OS
             0 MiB allocation reported by mallinfo(arena+hblkhd)
        116468 MiB available memory on the node where the printing process lives
------------------
     ethr =  1.15E-05,  avg # of iterations = 10.1

     total cpu time spent up to now is      255.0 secs

     total energy              =   -2768.02069168 Ry
     estimated scf accuracy    <       0.09877807 Ry

     total magnetization       =    -0.00    -0.00    -0.01 Bohr mag/cell
     absolute magnetization    =    11.59 Bohr mag/cell

     iteration # 11     ecut=   220.00 Ry     beta= 0.25
     Davidson diagonalization with overlap

---- Real-time Memory Report at c_bands before calling an iterative solver
           308 MiB given to the printing process from OS
             0 MiB allocation reported by mallinfo(arena+hblkhd)
        116760 MiB available memory on the node where the printing process lives
------------------
     ethr =  1.15E-05,  avg # of iterations = 12.2

     total cpu time spent up to now is      281.4 secs

     total energy              =   -2768.02976655 Ry
     estimated scf accuracy    <       0.00457123 Ry

     total magnetization       =     0.00    -0.00    -0.01 Bohr mag/cell
     absolute magnetization    =    11.68 Bohr mag/cell

     iteration # 12     ecut=   220.00 Ry     beta= 0.25
     Davidson diagonalization with overlap

---- Real-time Memory Report at c_bands before calling an iterative solver
           308 MiB given to the printing process from OS
             0 MiB allocation reported by mallinfo(arena+hblkhd)
        116629 MiB available memory on the node where the printing process lives
------------------
     ethr =  2.10E-06,  avg # of iterations = 11.8

     total cpu time spent up to now is      316.7 secs

     total energy              =   -2768.04249817 Ry
     estimated scf accuracy    <       0.00196893 Ry

     total magnetization       =    -0.00    -0.00     0.01 Bohr mag/cell
     absolute magnetization    =    12.01 Bohr mag/cell

     iteration # 13     ecut=   220.00 Ry     beta= 0.25
     Davidson diagonalization with overlap

---- Real-time Memory Report at c_bands before calling an iterative solver
           309 MiB given to the printing process from OS
             0 MiB allocation reported by mallinfo(arena+hblkhd)
        116621 MiB available memory on the node where the printing process lives
------------------
     ethr =  9.03E-07,  avg # of iterations =  8.7

     total cpu time spent up to now is      353.3 secs

     total energy              =   -2768.04786605 Ry
     estimated scf accuracy    <       0.00261574 Ry

     total magnetization       =    -0.00    -0.00     0.01 Bohr mag/cell
     absolute magnetization    =    12.28 Bohr mag/cell

     iteration # 14     ecut=   220.00 Ry     beta= 0.25
     Davidson diagonalization with overlap

---- Real-time Memory Report at c_bands before calling an iterative solver
           310 MiB given to the printing process from OS
             0 MiB allocation reported by mallinfo(arena+hblkhd)
        116535 MiB available memory on the node where the printing process lives
------------------
     ethr =  9.03E-07,  avg # of iterations =  6.8

     total cpu time spent up to now is      378.3 secs

     total energy              =   -2768.05318440 Ry
     estimated scf accuracy    <       0.00357947 Ry

     total magnetization       =     0.00    -0.00    -0.01 Bohr mag/cell
     absolute magnetization    =    12.32 Bohr mag/cell

     iteration # 15     ecut=   220.00 Ry     beta= 0.25
     Davidson diagonalization with overlap

---- Real-time Memory Report at c_bands before calling an iterative solver
           310 MiB given to the printing process from OS
             0 MiB allocation reported by mallinfo(arena+hblkhd)
        116395 MiB available memory on the node where the printing process lives
------------------
     ethr =  9.03E-07,  avg # of iterations =  6.5

     total cpu time spent up to now is      406.0 secs

     total energy              =   -2768.06092897 Ry
     estimated scf accuracy    <       0.00129431 Ry

     total magnetization       =     0.00    -0.00    -0.00 Bohr mag/cell
     absolute magnetization    =    12.50 Bohr mag/cell

     iteration # 16     ecut=   220.00 Ry     beta= 0.25
     Davidson diagonalization with overlap

---- Real-time Memory Report at c_bands before calling an iterative solver
           312 MiB given to the printing process from OS
             0 MiB allocation reported by mallinfo(arena+hblkhd)
        116398 MiB available memory on the node where the printing process lives
------------------
     ethr =  5.94E-07,  avg # of iterations =  6.3

     total cpu time spent up to now is      440.5 secs

     total energy              =   -2768.07005885 Ry
     estimated scf accuracy    <       0.00039016 Ry

     total magnetization       =    -0.00    -0.00     0.00 Bohr mag/cell
     absolute magnetization    =    12.75 Bohr mag/cell

     iteration # 17     ecut=   220.00 Ry     beta= 0.25
     Davidson diagonalization with overlap

---- Real-time Memory Report at c_bands before calling an iterative solver
           312 MiB given to the printing process from OS
             0 MiB allocation reported by mallinfo(arena+hblkhd)
        116741 MiB available memory on the node where the printing process lives
------------------
     ethr =  1.79E-07,  avg # of iterations =  7.9

     total cpu time spent up to now is      478.9 secs

     total energy              =   -2768.07445169 Ry
     estimated scf accuracy    <       0.00050570 Ry

     total magnetization       =     0.00    -0.00    -0.00 Bohr mag/cell
     absolute magnetization    =    12.95 Bohr mag/cell

     iteration # 18     ecut=   220.00 Ry     beta= 0.25
     Davidson diagonalization with overlap

---- Real-time Memory Report at c_bands before calling an iterative solver
           313 MiB given to the printing process from OS
             0 MiB allocation reported by mallinfo(arena+hblkhd)
        116720 MiB available memory on the node where the printing process lives
------------------
     ethr =  1.79E-07,  avg # of iterations =  4.8

     total cpu time spent up to now is      505.8 secs

     total energy              =   -2768.07881917 Ry
     estimated scf accuracy    <       0.00041055 Ry

     total magnetization       =     0.00    -0.00    -0.00 Bohr mag/cell
     absolute magnetization    =    13.05 Bohr mag/cell

     iteration # 19     ecut=   220.00 Ry     beta= 0.25
     Davidson diagonalization with overlap

---- Real-time Memory Report at c_bands before calling an iterative solver
           313 MiB given to the printing process from OS
             0 MiB allocation reported by mallinfo(arena+hblkhd)
        116370 MiB available memory on the node where the printing process lives
------------------
     ethr =  1.79E-07,  avg # of iterations =  6.4

     total cpu time spent up to now is      537.0 secs

     total energy              =   -2768.08105205 Ry
     estimated scf accuracy    <       0.00039821 Ry

     total magnetization       =     0.00    -0.00     0.00 Bohr mag/cell
     absolute magnetization    =    13.17 Bohr mag/cell

     iteration # 20     ecut=   220.00 Ry     beta= 0.25
     Davidson diagonalization with overlap

---- Real-time Memory Report at c_bands before calling an iterative solver
           313 MiB given to the printing process from OS
             0 MiB allocation reported by mallinfo(arena+hblkhd)
        116456 MiB available memory on the node where the printing process lives
------------------
     ethr =  1.79E-07,  avg # of iterations =  3.0

     total cpu time spent up to now is      557.9 secs

     total energy              =   -2768.08490963 Ry
     estimated scf accuracy    <       0.00039881 Ry

     total magnetization       =     0.00    -0.00     0.00 Bohr mag/cell
     absolute magnetization    =    13.21 Bohr mag/cell

     iteration # 21     ecut=   220.00 Ry     beta= 0.25
     Davidson diagonalization with overlap

---- Real-time Memory Report at c_bands before calling an iterative solver
           313 MiB given to the printing process from OS
             0 MiB allocation reported by mallinfo(arena+hblkhd)
        116491 MiB available memory on the node where the printing process lives
------------------
     ethr =  1.79E-07,  avg # of iterations =  7.5

     total cpu time spent up to now is      591.2 secs

     total energy              =   -2768.08177572 Ry
     estimated scf accuracy    <       0.00043638 Ry

     total magnetization       =     0.00    -0.00     0.00 Bohr mag/cell
     absolute magnetization    =    13.34 Bohr mag/cell

     iteration # 22     ecut=   220.00 Ry     beta= 0.25
     Davidson diagonalization with overlap

---- Real-time Memory Report at c_bands before calling an iterative solver
           314 MiB given to the printing process from OS
             0 MiB allocation reported by mallinfo(arena+hblkhd)
        116297 MiB available memory on the node where the printing process lives
------------------
     ethr =  1.79E-07,  avg # of iterations =  6.7

     total cpu time spent up to now is      626.2 secs

     total energy              =   -2768.06409945 Ry
     estimated scf accuracy    <       0.00048782 Ry

     total magnetization       =     0.00     0.00    -0.00 Bohr mag/cell
     absolute magnetization    =    13.30 Bohr mag/cell

     iteration # 23     ecut=   220.00 Ry     beta= 0.25
     Davidson diagonalization with overlap

---- Real-time Memory Report at c_bands before calling an iterative solver
           315 MiB given to the printing process from OS
             0 MiB allocation reported by mallinfo(arena+hblkhd)
        116508 MiB available memory on the node where the printing process lives
------------------
     ethr =  1.79E-07,  avg # of iterations = 11.3

     total cpu time spent up to now is      672.2 secs

     total energy              =   -2768.07577316 Ry
     estimated scf accuracy    <       0.00055199 Ry

     total magnetization       =    -0.00    -0.00     0.00 Bohr mag/cell
     absolute magnetization    =    12.96 Bohr mag/cell

     iteration # 24     ecut=   220.00 Ry     beta= 0.25
     Davidson diagonalization with overlap

---- Real-time Memory Report at c_bands before calling an iterative solver
           316 MiB given to the printing process from OS
             0 MiB allocation reported by mallinfo(arena+hblkhd)
        116312 MiB available memory on the node where the printing process lives
------------------
     ethr =  1.79E-07,  avg # of iterations =  6.4

     total cpu time spent up to now is      704.2 secs

     total energy              =   -2768.07641569 Ry
     estimated scf accuracy    <       0.00039929 Ry

     total magnetization       =    -0.00    -0.00    -0.00 Bohr mag/cell
     absolute magnetization    =    13.08 Bohr mag/cell

     iteration # 25     ecut=   220.00 Ry     beta= 0.25
     Davidson diagonalization with overlap

---- Real-time Memory Report at c_bands before calling an iterative solver
           316 MiB given to the printing process from OS
             0 MiB allocation reported by mallinfo(arena+hblkhd)
        116326 MiB available memory on the node where the printing process lives
------------------
     ethr =  1.79E-07,  avg # of iterations =  7.4

     total cpu time spent up to now is      738.1 secs

     total energy              =   -2768.08100174 Ry
     estimated scf accuracy    <       0.00031501 Ry

     total magnetization       =    -0.00    -0.00     0.00 Bohr mag/cell
     absolute magnetization    =    13.11 Bohr mag/cell

     iteration # 26     ecut=   220.00 Ry     beta= 0.25
     Davidson diagonalization with overlap

---- Real-time Memory Report at c_bands before calling an iterative solver
           316 MiB given to the printing process from OS
             0 MiB allocation reported by mallinfo(arena+hblkhd)
        116223 MiB available memory on the node where the printing process lives
------------------
     ethr =  1.45E-07,  avg # of iterations =  5.9

     total cpu time spent up to now is      770.7 secs

     total energy              =   -2768.08668853 Ry
     estimated scf accuracy    <       0.00027455 Ry

     total magnetization       =    -0.00    -0.00     0.00 Bohr mag/cell
     absolute magnetization    =    13.24 Bohr mag/cell

     iteration # 27     ecut=   220.00 Ry     beta= 0.25
     Davidson diagonalization with overlap

---- Real-time Memory Report at c_bands before calling an iterative solver
           316 MiB given to the printing process from OS
             0 MiB allocation reported by mallinfo(arena+hblkhd)
        116290 MiB available memory on the node where the printing process lives
------------------
     ethr =  1.26E-07,  avg # of iterations =  7.9

     total cpu time spent up to now is      809.4 secs

     total energy              =   -2768.09350080 Ry
     estimated scf accuracy    <       0.00026866 Ry

     total magnetization       =    -0.00     0.00     0.00 Bohr mag/cell
     absolute magnetization    =    13.46 Bohr mag/cell

     iteration # 28     ecut=   220.00 Ry     beta= 0.25
     Davidson diagonalization with overlap

---- Real-time Memory Report at c_bands before calling an iterative solver
           317 MiB given to the printing process from OS
             0 MiB allocation reported by mallinfo(arena+hblkhd)
        116239 MiB available memory on the node where the printing process lives
------------------
     ethr =  1.23E-07,  avg # of iterations =  8.4

     total cpu time spent up to now is      847.8 secs

     total energy              =   -2768.09630678 Ry
     estimated scf accuracy    <       0.00026001 Ry

     total magnetization       =    -0.00     0.00     0.00 Bohr mag/cell
     absolute magnetization    =    13.69 Bohr mag/cell

     iteration # 29     ecut=   220.00 Ry     beta= 0.25
     Davidson diagonalization with overlap

---- Real-time Memory Report at c_bands before calling an iterative solver
           317 MiB given to the printing process from OS
             0 MiB allocation reported by mallinfo(arena+hblkhd)
        116243 MiB available memory on the node where the printing process lives
------------------
     ethr =  1.19E-07,  avg # of iterations =  4.2

     total cpu time spent up to now is      871.4 secs

     total energy              =   -2768.09609960 Ry
     estimated scf accuracy    <       0.00026269 Ry

     total magnetization       =     0.00     0.00     0.00 Bohr mag/cell
     absolute magnetization    =    13.73 Bohr mag/cell

     iteration # 30     ecut=   220.00 Ry     beta= 0.25
     Davidson diagonalization with overlap

---- Real-time Memory Report at c_bands before calling an iterative solver
           317 MiB given to the printing process from OS
             0 MiB allocation reported by mallinfo(arena+hblkhd)
        116338 MiB available memory on the node where the printing process lives
------------------
     ethr =  1.19E-07,  avg # of iterations =  1.7

     total cpu time spent up to now is      887.4 secs

     total energy              =   -2768.09816070 Ry
     estimated scf accuracy    <       0.00026815 Ry

     total magnetization       =     0.00     0.00     0.00 Bohr mag/cell
     absolute magnetization    =    13.72 Bohr mag/cell

     iteration # 31     ecut=   220.00 Ry     beta= 0.25
     Davidson diagonalization with overlap

---- Real-time Memory Report at c_bands before calling an iterative solver
           317 MiB given to the printing process from OS
             0 MiB allocation reported by mallinfo(arena+hblkhd)
        116322 MiB available memory on the node where the printing process lives
------------------
     ethr =  1.19E-07,  avg # of iterations =  4.1

     total cpu time spent up to now is      915.5 secs

     total energy              =   -2768.10399975 Ry
     estimated scf accuracy    <       0.00029951 Ry

     total magnetization       =     0.00     0.00     0.00 Bohr mag/cell
     absolute magnetization    =    13.79 Bohr mag/cell

     iteration # 32     ecut=   220.00 Ry     beta= 0.25
     Davidson diagonalization with overlap

---- Real-time Memory Report at c_bands before calling an iterative solver
           317 MiB given to the printing process from OS
             0 MiB allocation reported by mallinfo(arena+hblkhd)
        116404 MiB available memory on the node where the printing process lives
------------------
     ethr =  1.19E-07,  avg # of iterations =  9.0

     total cpu time spent up to now is      956.3 secs

     total energy              =   -2768.10699763 Ry
     estimated scf accuracy    <       0.00039594 Ry

     total magnetization       =     0.00     0.00    -0.00 Bohr mag/cell
     absolute magnetization    =    14.02 Bohr mag/cell

     iteration # 33     ecut=   220.00 Ry     beta= 0.25
     Davidson diagonalization with overlap

---- Real-time Memory Report at c_bands before calling an iterative solver
           317 MiB given to the printing process from OS
             0 MiB allocation reported by mallinfo(arena+hblkhd)
        116265 MiB available memory on the node where the printing process lives
------------------
     ethr =  1.19E-07,  avg # of iterations =  5.1

     total cpu time spent up to now is      981.2 secs

     total energy              =   -2768.10588433 Ry
     estimated scf accuracy    <       0.00035073 Ry

     total magnetization       =     0.00     0.00    -0.00 Bohr mag/cell
     absolute magnetization    =    14.07 Bohr mag/cell

     iteration # 34     ecut=   220.00 Ry     beta= 0.25
     Davidson diagonalization with overlap

---- Real-time Memory Report at c_bands before calling an iterative solver
           317 MiB given to the printing process from OS
             0 MiB allocation reported by mallinfo(arena+hblkhd)
        116166 MiB available memory on the node where the printing process lives
------------------
     ethr =  1.19E-07,  avg # of iterations =  3.2

     total cpu time spent up to now is     1004.7 secs

     total energy              =   -2768.10434571 Ry
     estimated scf accuracy    <       0.00034934 Ry

     total magnetization       =     0.00     0.00    -0.00 Bohr mag/cell
     absolute magnetization    =    14.04 Bohr mag/cell

     iteration # 35     ecut=   220.00 Ry     beta= 0.25
     Davidson diagonalization with overlap

---- Real-time Memory Report at c_bands before calling an iterative solver
           317 MiB given to the printing process from OS
             0 MiB allocation reported by mallinfo(arena+hblkhd)
        116268 MiB available memory on the node where the printing process lives
------------------
     ethr =  1.19E-07,  avg # of iterations =  5.7

     total cpu time spent up to now is     1034.5 secs

     total energy              =   -2768.10962940 Ry
     estimated scf accuracy    <       0.00032786 Ry

     total magnetization       =     0.00     0.00     0.00 Bohr mag/cell
     absolute magnetization    =    14.00 Bohr mag/cell

     iteration # 36     ecut=   220.00 Ry     beta= 0.25
     Davidson diagonalization with overlap

---- Real-time Memory Report at c_bands before calling an iterative solver
           317 MiB given to the printing process from OS
             0 MiB allocation reported by mallinfo(arena+hblkhd)
        116264 MiB available memory on the node where the printing process lives
------------------
     ethr =  1.19E-07,  avg # of iterations =  8.1

     total cpu time spent up to now is     1071.9 secs

     total energy              =   -2768.11586512 Ry
     estimated scf accuracy    <       0.00030608 Ry

     total magnetization       =     0.00     0.00    -0.00 Bohr mag/cell
     absolute magnetization    =    14.19 Bohr mag/cell

     iteration # 37     ecut=   220.00 Ry     beta= 0.25
     Davidson diagonalization with overlap

---- Real-time Memory Report at c_bands before calling an iterative solver
           317 MiB given to the printing process from OS
             0 MiB allocation reported by mallinfo(arena+hblkhd)
        116300 MiB available memory on the node where the printing process lives
------------------
     ethr =  1.19E-07,  avg # of iterations =  8.5

     total cpu time spent up to now is     1112.3 secs

     total energy              =   -2768.11648138 Ry
     estimated scf accuracy    <       0.00035140 Ry

     total magnetization       =     0.00     0.00    -0.00 Bohr mag/cell
     absolute magnetization    =    14.39 Bohr mag/cell

     iteration # 38     ecut=   220.00 Ry     beta= 0.25
     Davidson diagonalization with overlap

---- Real-time Memory Report at c_bands before calling an iterative solver
           317 MiB given to the printing process from OS
             0 MiB allocation reported by mallinfo(arena+hblkhd)
        116176 MiB available memory on the node where the printing process lives
------------------
     ethr =  1.19E-07,  avg # of iterations =  2.7

     total cpu time spent up to now is     1135.6 secs

     total energy              =   -2768.11414833 Ry
     estimated scf accuracy    <       0.00033537 Ry

     total magnetization       =     0.00     0.00     0.00 Bohr mag/cell
     absolute magnetization    =    14.38 Bohr mag/cell

     iteration # 39     ecut=   220.00 Ry     beta= 0.25
     Davidson diagonalization with overlap

---- Real-time Memory Report at c_bands before calling an iterative solver
           317 MiB given to the printing process from OS
             0 MiB allocation reported by mallinfo(arena+hblkhd)
        116136 MiB available memory on the node where the printing process lives
------------------
     ethr =  1.19E-07,  avg # of iterations =  5.0

     total cpu time spent up to now is     1164.2 secs

     total energy              =   -2768.10992039 Ry
     estimated scf accuracy    <       0.00033115 Ry

     total magnetization       =     0.00     0.00     0.00 Bohr mag/cell
     absolute magnetization    =    14.32 Bohr mag/cell

     iteration # 40     ecut=   220.00 Ry     beta= 0.25
     Davidson diagonalization with overlap

---- Real-time Memory Report at c_bands before calling an iterative solver
           317 MiB given to the printing process from OS
             0 MiB allocation reported by mallinfo(arena+hblkhd)
        116319 MiB available memory on the node where the printing process lives
------------------
     ethr =  1.19E-07,  avg # of iterations =  7.5

     total cpu time spent up to now is     1200.1 secs

     total energy              =   -2768.10102737 Ry
     estimated scf accuracy    <       0.00031410 Ry

     total magnetization       =     0.00     0.00    -0.00 Bohr mag/cell
     absolute magnetization    =    14.21 Bohr mag/cell

     iteration # 41     ecut=   220.00 Ry     beta= 0.25
     Davidson diagonalization with overlap

---- Real-time Memory Report at c_bands before calling an iterative solver
           317 MiB given to the printing process from OS
             0 MiB allocation reported by mallinfo(arena+hblkhd)
        116353 MiB available memory on the node where the printing process lives
------------------
     ethr =  1.19E-07,  avg # of iterations = 11.5

     total cpu time spent up to now is     1245.3 secs

     total energy              =   -2768.10557447 Ry
     estimated scf accuracy    <       0.00031975 Ry

     total magnetization       =     0.00     0.00     0.00 Bohr mag/cell
     absolute magnetization    =    14.01 Bohr mag/cell

     iteration # 42     ecut=   220.00 Ry     beta= 0.25
     Davidson diagonalization with overlap

---- Real-time Memory Report at c_bands before calling an iterative solver
           317 MiB given to the printing process from OS
             0 MiB allocation reported by mallinfo(arena+hblkhd)
        116098 MiB available memory on the node where the printing process lives
------------------
     ethr =  1.19E-07,  avg # of iterations =  6.5

     total cpu time spent up to now is     1276.7 secs

     total energy              =   -2768.10459387 Ry
     estimated scf accuracy    <       0.00072531 Ry

     total magnetization       =     0.00     0.00    -0.00 Bohr mag/cell
     absolute magnetization    =    14.07 Bohr mag/cell

     iteration # 43     ecut=   220.00 Ry     beta= 0.25
     Davidson diagonalization with overlap

---- Real-time Memory Report at c_bands before calling an iterative solver
           317 MiB given to the printing process from OS
             0 MiB allocation reported by mallinfo(arena+hblkhd)
        116084 MiB available memory on the node where the printing process lives
------------------
     ethr =  1.19E-07,  avg # of iterations =  7.1

     total cpu time spent up to now is     1309.6 secs

     total energy              =   -2768.10616343 Ry
     estimated scf accuracy    <       0.00030858 Ry

     total magnetization       =     0.00     0.00    -0.00 Bohr mag/cell
     absolute magnetization    =    14.05 Bohr mag/cell

     iteration # 44     ecut=   220.00 Ry     beta= 0.25
     Davidson diagonalization with overlap

---- Real-time Memory Report at c_bands before calling an iterative solver
           318 MiB given to the printing process from OS
             0 MiB allocation reported by mallinfo(arena+hblkhd)
        116182 MiB available memory on the node where the printing process lives
------------------
     ethr =  1.19E-07,  avg # of iterations =  7.1

     total cpu time spent up to now is     1343.3 secs

     total energy              =   -2768.10945569 Ry
     estimated scf accuracy    <       0.00022625 Ry

     total magnetization       =     0.00     0.00     0.00 Bohr mag/cell
     absolute magnetization    =    14.11 Bohr mag/cell

     iteration # 45     ecut=   220.00 Ry     beta= 0.25
     Davidson diagonalization with overlap

---- Real-time Memory Report at c_bands before calling an iterative solver
           318 MiB given to the printing process from OS
             0 MiB allocation reported by mallinfo(arena+hblkhd)
        116247 MiB available memory on the node where the printing process lives
------------------
     ethr =  1.04E-07,  avg # of iterations =  6.7

     total cpu time spent up to now is     1377.1 secs

     total energy              =   -2768.11278264 Ry
     estimated scf accuracy    <       0.00024416 Ry

     total magnetization       =     0.00     0.00    -0.00 Bohr mag/cell
     absolute magnetization    =    14.22 Bohr mag/cell

     iteration # 46     ecut=   220.00 Ry     beta= 0.25
     Davidson diagonalization with overlap

---- Real-time Memory Report at c_bands before calling an iterative solver
           318 MiB given to the printing process from OS
             0 MiB allocation reported by mallinfo(arena+hblkhd)
        116074 MiB available memory on the node where the printing process lives
------------------
     ethr =  1.04E-07,  avg # of iterations =  7.5

     total cpu time spent up to now is     1412.4 secs

     total energy              =   -2768.11459706 Ry
     estimated scf accuracy    <       0.00022472 Ry

     total magnetization       =     0.00     0.00     0.00 Bohr mag/cell
     absolute magnetization    =    14.34 Bohr mag/cell

     iteration # 47     ecut=   220.00 Ry     beta= 0.25
     Davidson diagonalization with overlap

---- Real-time Memory Report at c_bands before calling an iterative solver
           318 MiB given to the printing process from OS
             0 MiB allocation reported by mallinfo(arena+hblkhd)
        116265 MiB available memory on the node where the printing process lives
------------------
     ethr =  1.03E-07,  avg # of iterations =  4.1

     total cpu time spent up to now is     1439.3 secs

     total energy              =   -2768.11419690 Ry
     estimated scf accuracy    <       0.00022594 Ry

     total magnetization       =     0.00     0.00    -0.00 Bohr mag/cell
     absolute magnetization    =    14.38 Bohr mag/cell

     iteration # 48     ecut=   220.00 Ry     beta= 0.25
     Davidson diagonalization with overlap

---- Real-time Memory Report at c_bands before calling an iterative solver
           318 MiB given to the printing process from OS
             0 MiB allocation reported by mallinfo(arena+hblkhd)
        116145 MiB available memory on the node where the printing process lives
------------------
     ethr =  1.03E-07,  avg # of iterations =  2.0

     total cpu time spent up to now is     1459.4 secs

     total energy              =   -2768.11392179 Ry
     estimated scf accuracy    <       0.00022802 Ry

     total magnetization       =     0.00     0.00     0.00 Bohr mag/cell
     absolute magnetization    =    14.36 Bohr mag/cell

     iteration # 49     ecut=   220.00 Ry     beta= 0.25
     Davidson diagonalization with overlap

---- Real-time Memory Report at c_bands before calling an iterative solver
           318 MiB given to the printing process from OS
             0 MiB allocation reported by mallinfo(arena+hblkhd)
        116059 MiB available memory on the node where the printing process lives
------------------
     ethr =  1.03E-07,  avg # of iterations =  2.4

     total cpu time spent up to now is     1480.4 secs

     total energy              =   -2768.11707093 Ry
     estimated scf accuracy    <       0.00024815 Ry

     total magnetization       =     0.00     0.00     0.00 Bohr mag/cell
     absolute magnetization    =    14.36 Bohr mag/cell

     iteration # 50     ecut=   220.00 Ry     beta= 0.25
     Davidson diagonalization with overlap

---- Real-time Memory Report at c_bands before calling an iterative solver
           318 MiB given to the printing process from OS
             0 MiB allocation reported by mallinfo(arena+hblkhd)
        116146 MiB available memory on the node where the printing process lives
------------------
     ethr =  1.03E-07,  avg # of iterations =  7.2

     total cpu time spent up to now is     1515.7 secs

     total energy              =   -2768.12127139 Ry
     estimated scf accuracy    <       0.00026447 Ry

     total magnetization       =     0.00     0.00     0.00 Bohr mag/cell
     absolute magnetization    =    14.48 Bohr mag/cell

     iteration # 51     ecut=   220.00 Ry     beta= 0.25
     Davidson diagonalization with overlap

---- Real-time Memory Report at c_bands before calling an iterative solver
           318 MiB given to the printing process from OS
             0 MiB allocation reported by mallinfo(arena+hblkhd)
        116092 MiB available memory on the node where the printing process lives
------------------
     ethr =  1.03E-07,  avg # of iterations =  7.9

     total cpu time spent up to now is     1552.4 secs

     total energy              =   -2768.12483897 Ry
     estimated scf accuracy    <       0.00025611 Ry

     total magnetization       =     0.00     0.00    -0.00 Bohr mag/cell
     absolute magnetization    =    14.63 Bohr mag/cell

     iteration # 52     ecut=   220.00 Ry     beta= 0.25
     Davidson diagonalization with overlap

---- Real-time Memory Report at c_bands before calling an iterative solver
           318 MiB given to the printing process from OS
             0 MiB allocation reported by mallinfo(arena+hblkhd)
        116134 MiB available memory on the node where the printing process lives
------------------
     ethr =  1.03E-07,  avg # of iterations =  6.6

     total cpu time spent up to now is     1586.0 secs

     total energy              =   -2768.12424736 Ry
     estimated scf accuracy    <       0.00022781 Ry

     total magnetization       =     0.00     0.00     0.00 Bohr mag/cell
     absolute magnetization    =    14.74 Bohr mag/cell

     iteration # 53     ecut=   220.00 Ry     beta= 0.25
     Davidson diagonalization with overlap

---- Real-time Memory Report at c_bands before calling an iterative solver
           318 MiB given to the printing process from OS
             0 MiB allocation reported by mallinfo(arena+hblkhd)
        116132 MiB available memory on the node where the printing process lives
------------------
     ethr =  1.03E-07,  avg # of iterations =  6.2

     total cpu time spent up to now is     1617.4 secs

     total energy              =   -2768.12468952 Ry
     estimated scf accuracy    <       0.00022895 Ry

     total magnetization       =     0.00     0.00    -0.00 Bohr mag/cell
     absolute magnetization    =    14.70 Bohr mag/cell

     iteration # 54     ecut=   220.00 Ry     beta= 0.25
     Davidson diagonalization with overlap

---- Real-time Memory Report at c_bands before calling an iterative solver
           318 MiB given to the printing process from OS
             0 MiB allocation reported by mallinfo(arena+hblkhd)
        116129 MiB available memory on the node where the printing process lives
------------------
     ethr =  1.03E-07,  avg # of iterations =  3.6

     total cpu time spent up to now is     1640.3 secs

     total energy              =   -2768.12709613 Ry
     estimated scf accuracy    <       0.00023219 Ry

     total magnetization       =     0.00     0.00    -0.00 Bohr mag/cell
     absolute magnetization    =    14.71 Bohr mag/cell

     iteration # 55     ecut=   220.00 Ry     beta= 0.25
     Davidson diagonalization with overlap

---- Real-time Memory Report at c_bands before calling an iterative solver
           318 MiB given to the printing process from OS
             0 MiB allocation reported by mallinfo(arena+hblkhd)
        116165 MiB available memory on the node where the printing process lives
------------------
     ethr =  1.03E-07,  avg # of iterations =  6.5

     total cpu time spent up to now is     1673.2 secs

     total energy              =   -2768.12907899 Ry
     estimated scf accuracy    <       0.00025829 Ry

     total magnetization       =     0.00     0.00    -0.00 Bohr mag/cell
     absolute magnetization    =    14.80 Bohr mag/cell

     iteration # 56     ecut=   220.00 Ry     beta= 0.25
     Davidson diagonalization with overlap

---- Real-time Memory Report at c_bands before calling an iterative solver
           318 MiB given to the printing process from OS
             0 MiB allocation reported by mallinfo(arena+hblkhd)
        116130 MiB available memory on the node where the printing process lives
------------------
     ethr =  1.03E-07,  avg # of iterations =  6.5

     total cpu time spent up to now is     1708.1 secs

     total energy              =   -2768.13143689 Ry
     estimated scf accuracy    <       0.00023473 Ry

     total magnetization       =     0.00     0.00     0.00 Bohr mag/cell
     absolute magnetization    =    14.86 Bohr mag/cell

     iteration # 57     ecut=   220.00 Ry     beta= 0.25
     Davidson diagonalization with overlap

---- Real-time Memory Report at c_bands before calling an iterative solver
           319 MiB given to the printing process from OS
             0 MiB allocation reported by mallinfo(arena+hblkhd)
        116131 MiB available memory on the node where the printing process lives
------------------
     ethr =  1.03E-07,  avg # of iterations =  7.5

     total cpu time spent up to now is     1741.8 secs

     total energy              =   -2768.13396161 Ry
     estimated scf accuracy    <       0.00024082 Ry

     total magnetization       =     0.00     0.00    -0.00 Bohr mag/cell
     absolute magnetization    =    14.94 Bohr mag/cell

     iteration # 58     ecut=   220.00 Ry     beta= 0.25
     Davidson diagonalization with overlap

---- Real-time Memory Report at c_bands before calling an iterative solver
           319 MiB given to the printing process from OS
             0 MiB allocation reported by mallinfo(arena+hblkhd)
        116025 MiB available memory on the node where the printing process lives
------------------
     ethr =  1.03E-07,  avg # of iterations =  6.4

     total cpu time spent up to now is     1774.0 secs

     total energy              =   -2768.13618589 Ry
     estimated scf accuracy    <       0.00021987 Ry

     total magnetization       =     0.00     0.00    -0.00 Bohr mag/cell
     absolute magnetization    =    15.02 Bohr mag/cell

     iteration # 59     ecut=   220.00 Ry     beta= 0.25
     Davidson diagonalization with overlap

---- Real-time Memory Report at c_bands before calling an iterative solver
           319 MiB given to the printing process from OS
             0 MiB allocation reported by mallinfo(arena+hblkhd)
        116217 MiB available memory on the node where the printing process lives
------------------
     ethr =  1.01E-07,  avg # of iterations =  7.2

     total cpu time spent up to now is     1808.9 secs

     total energy              =   -2768.13934549 Ry
     estimated scf accuracy    <       0.00021955 Ry

     total magnetization       =     0.00     0.00    -0.00 Bohr mag/cell
     absolute magnetization    =    15.09 Bohr mag/cell

     iteration # 60     ecut=   220.00 Ry     beta= 0.25
     Davidson diagonalization with overlap

---- Real-time Memory Report at c_bands before calling an iterative solver
           319 MiB given to the printing process from OS
             0 MiB allocation reported by mallinfo(arena+hblkhd)
        116184 MiB available memory on the node where the printing process lives
------------------
     ethr =  1.01E-07,  avg # of iterations =  7.5

     total cpu time spent up to now is     1845.2 secs

     total energy              =   -2768.14204856 Ry
     estimated scf accuracy    <       0.00021776 Ry

     total magnetization       =     0.00     0.00    -0.00 Bohr mag/cell
     absolute magnetization    =    15.21 Bohr mag/cell

     iteration # 61     ecut=   220.00 Ry     beta= 0.25
     Davidson diagonalization with overlap

---- Real-time Memory Report at c_bands before calling an iterative solver
           319 MiB given to the printing process from OS
             0 MiB allocation reported by mallinfo(arena+hblkhd)
        116132 MiB available memory on the node where the printing process lives
------------------
     ethr =  9.99E-08,  avg # of iterations =  6.4

     total cpu time spent up to now is     1877.6 secs

     total energy              =   -2768.14370772 Ry
     estimated scf accuracy    <       0.00021599 Ry

     total magnetization       =     0.01     0.00    -0.00 Bohr mag/cell
     absolute magnetization    =    15.29 Bohr mag/cell

     iteration # 62     ecut=   220.00 Ry     beta= 0.25
     Davidson diagonalization with overlap

---- Real-time Memory Report at c_bands before calling an iterative solver
           319 MiB given to the printing process from OS
             0 MiB allocation reported by mallinfo(arena+hblkhd)
        116128 MiB available memory on the node where the printing process lives
------------------
     ethr =  9.91E-08,  avg # of iterations =  6.4

     total cpu time spent up to now is     1908.7 secs

     total energy              =   -2768.14606982 Ry
     estimated scf accuracy    <       0.00025535 Ry

     total magnetization       =     0.01     0.00    -0.00 Bohr mag/cell
     absolute magnetization    =    15.34 Bohr mag/cell

     iteration # 63     ecut=   220.00 Ry     beta= 0.25
     Davidson diagonalization with overlap

---- Real-time Memory Report at c_bands before calling an iterative solver
           319 MiB given to the printing process from OS
             0 MiB allocation reported by mallinfo(arena+hblkhd)
        116093 MiB available memory on the node where the printing process lives
------------------
     ethr =  9.91E-08,  avg # of iterations =  7.6

     total cpu time spent up to now is     1949.1 secs

     total energy              =   -2768.14880103 Ry
     estimated scf accuracy    <       0.00020812 Ry

     total magnetization       =     0.01     0.00    -0.00 Bohr mag/cell
     absolute magnetization    =    15.43 Bohr mag/cell

     iteration # 64     ecut=   220.00 Ry     beta= 0.25
     Davidson diagonalization with overlap

---- Real-time Memory Report at c_bands before calling an iterative solver
           319 MiB given to the printing process from OS
             0 MiB allocation reported by mallinfo(arena+hblkhd)
        116026 MiB available memory on the node where the printing process lives
------------------
     ethr =  9.55E-08,  avg # of iterations =  7.6

     total cpu time spent up to now is     1986.9 secs

     total energy              =   -2768.15193581 Ry
     estimated scf accuracy    <       0.00019716 Ry

     total magnetization       =     0.01    -0.00    -0.00 Bohr mag/cell
     absolute magnetization    =    15.54 Bohr mag/cell

     iteration # 65     ecut=   220.00 Ry     beta= 0.25
     Davidson diagonalization with overlap

---- Real-time Memory Report at c_bands before calling an iterative solver
           320 MiB given to the printing process from OS
             0 MiB allocation reported by mallinfo(arena+hblkhd)
        116118 MiB available memory on the node where the printing process lives
------------------
     ethr =  9.04E-08,  avg # of iterations =  9.6

     total cpu time spent up to now is     2029.8 secs

     total energy              =   -2768.15312332 Ry
     estimated scf accuracy    <       0.00021296 Ry

     total magnetization       =     0.01    -0.00    -0.00 Bohr mag/cell
     absolute magnetization    =    15.68 Bohr mag/cell

     iteration # 66     ecut=   220.00 Ry     beta= 0.25
     Davidson diagonalization with overlap

---- Real-time Memory Report at c_bands before calling an iterative solver
           320 MiB given to the printing process from OS
             0 MiB allocation reported by mallinfo(arena+hblkhd)
        116132 MiB available memory on the node where the printing process lives
------------------
     ethr =  9.04E-08,  avg # of iterations =  4.7

     total cpu time spent up to now is     2060.0 secs

     total energy              =   -2768.15612029 Ry
     estimated scf accuracy    <       0.00020263 Ry

     total magnetization       =     0.01    -0.00    -0.00 Bohr mag/cell
     absolute magnetization    =    15.68 Bohr mag/cell

     iteration # 67     ecut=   220.00 Ry     beta= 0.25
     Davidson diagonalization with overlap

---- Real-time Memory Report at c_bands before calling an iterative solver
           320 MiB given to the printing process from OS
             0 MiB allocation reported by mallinfo(arena+hblkhd)
        116063 MiB available memory on the node where the printing process lives
------------------
     ethr =  9.04E-08,  avg # of iterations =  7.8

     total cpu time spent up to now is     2100.8 secs

     total energy              =   -2768.15842372 Ry
     estimated scf accuracy    <       0.00018813 Ry

     total magnetization       =     0.01    -0.00    -0.00 Bohr mag/cell
     absolute magnetization    =    15.80 Bohr mag/cell

     iteration # 68     ecut=   220.00 Ry     beta= 0.25
     Davidson diagonalization with overlap

---- Real-time Memory Report at c_bands before calling an iterative solver
           321 MiB given to the printing process from OS
             0 MiB allocation reported by mallinfo(arena+hblkhd)
        116220 MiB available memory on the node where the printing process lives
------------------
     ethr =  8.63E-08,  avg # of iterations =  6.7

     total cpu time spent up to now is     2135.1 secs

     total energy              =   -2768.15935355 Ry
     estimated scf accuracy    <       0.00018740 Ry

     total magnetization       =     0.01    -0.00    -0.00 Bohr mag/cell
     absolute magnetization    =    15.86 Bohr mag/cell

     iteration # 69     ecut=   220.00 Ry     beta= 0.25
     Davidson diagonalization with overlap

---- Real-time Memory Report at c_bands before calling an iterative solver
           321 MiB given to the printing process from OS
             0 MiB allocation reported by mallinfo(arena+hblkhd)
        116083 MiB available memory on the node where the printing process lives
------------------
     ethr =  8.60E-08,  avg # of iterations =  4.2

     total cpu time spent up to now is     2164.7 secs

     total energy              =   -2768.16120871 Ry
     estimated scf accuracy    <       0.00018087 Ry

     total magnetization       =     0.01    -0.00    -0.00 Bohr mag/cell
     absolute magnetization    =    15.88 Bohr mag/cell

     iteration # 70     ecut=   220.00 Ry     beta= 0.25
     Davidson diagonalization with overlap

---- Real-time Memory Report at c_bands before calling an iterative solver
           321 MiB given to the printing process from OS
             0 MiB allocation reported by mallinfo(arena+hblkhd)
        116014 MiB available memory on the node where the printing process lives
------------------
     ethr =  8.30E-08,  avg # of iterations =  7.8

     total cpu time spent up to now is     2203.8 secs

     total energy              =   -2768.16280656 Ry
     estimated scf accuracy    <       0.00018248 Ry

     total magnetization       =     0.01    -0.00    -0.00 Bohr mag/cell
     absolute magnetization    =    15.95 Bohr mag/cell

     iteration # 71     ecut=   220.00 Ry     beta= 0.25
     Davidson diagonalization with overlap

---- Real-time Memory Report at c_bands before calling an iterative solver
           321 MiB given to the printing process from OS
             0 MiB allocation reported by mallinfo(arena+hblkhd)
        116116 MiB available memory on the node where the printing process lives
------------------
     ethr =  8.30E-08,  avg # of iterations =  6.1

     total cpu time spent up to now is     2237.1 secs

     total energy              =   -2768.16339544 Ry
     estimated scf accuracy    <       0.00018190 Ry

     total magnetization       =     0.01    -0.00    -0.00 Bohr mag/cell
     absolute magnetization    =    16.00 Bohr mag/cell

     iteration # 72     ecut=   220.00 Ry     beta= 0.25
     Davidson diagonalization with overlap

---- Real-time Memory Report at c_bands before calling an iterative solver
           321 MiB given to the printing process from OS
             0 MiB allocation reported by mallinfo(arena+hblkhd)
        116116 MiB available memory on the node where the printing process lives
------------------
     ethr =  8.30E-08,  avg # of iterations =  4.0

     total cpu time spent up to now is     2265.7 secs

     total energy              =   -2768.16449323 Ry
     estimated scf accuracy    <       0.00018018 Ry

     total magnetization       =     0.01    -0.00    -0.00 Bohr mag/cell
     absolute magnetization    =    16.01 Bohr mag/cell

     iteration # 73     ecut=   220.00 Ry     beta= 0.25
     Davidson diagonalization with overlap

---- Real-time Memory Report at c_bands before calling an iterative solver
           321 MiB given to the printing process from OS
             0 MiB allocation reported by mallinfo(arena+hblkhd)
        116082 MiB available memory on the node where the printing process lives
------------------
     ethr =  8.27E-08,  avg # of iterations =  7.6

     total cpu time spent up to now is     2301.7 secs

     total energy              =   -2768.16648075 Ry
     estimated scf accuracy    <       0.00017508 Ry

     total magnetization       =     0.01    -0.00    -0.00 Bohr mag/cell
     absolute magnetization    =    16.07 Bohr mag/cell

     iteration # 74     ecut=   220.00 Ry     beta= 0.25
     Davidson diagonalization with overlap

---- Real-time Memory Report at c_bands before calling an iterative solver
           321 MiB given to the printing process from OS
             0 MiB allocation reported by mallinfo(arena+hblkhd)
        116013 MiB available memory on the node where the printing process lives
------------------
     ethr =  8.03E-08,  avg # of iterations =  7.5

     total cpu time spent up to now is     2338.4 secs

     total energy              =   -2768.16788424 Ry
     estimated scf accuracy    <       0.00017831 Ry

     total magnetization       =     0.01    -0.00    -0.00 Bohr mag/cell
     absolute magnetization    =    16.13 Bohr mag/cell

     iteration # 75     ecut=   220.00 Ry     beta= 0.25
     Davidson diagonalization with overlap

---- Real-time Memory Report at c_bands before calling an iterative solver
           321 MiB given to the printing process from OS
             0 MiB allocation reported by mallinfo(arena+hblkhd)
        116074 MiB available memory on the node where the printing process lives
------------------
     ethr =  8.03E-08,  avg # of iterations =  6.3

     total cpu time spent up to now is     2371.9 secs

     total energy              =   -2768.16853360 Ry
     estimated scf accuracy    <       0.00020601 Ry

     total magnetization       =     0.01    -0.01    -0.00 Bohr mag/cell
     absolute magnetization    =    16.17 Bohr mag/cell

     iteration # 76     ecut=   220.00 Ry     beta= 0.25
     Davidson diagonalization with overlap

---- Real-time Memory Report at c_bands before calling an iterative solver
           321 MiB given to the printing process from OS
             0 MiB allocation reported by mallinfo(arena+hblkhd)
        116075 MiB available memory on the node where the printing process lives
------------------
     ethr =  8.03E-08,  avg # of iterations =  6.3

     total cpu time spent up to now is     2403.2 secs

     total energy              =   -2768.17016502 Ry
     estimated scf accuracy    <       0.00016973 Ry

     total magnetization       =     0.02    -0.01    -0.00 Bohr mag/cell
     absolute magnetization    =    16.19 Bohr mag/cell

     iteration # 77     ecut=   220.00 Ry     beta= 0.25
     Davidson diagonalization with overlap

---- Real-time Memory Report at c_bands before calling an iterative solver
           321 MiB given to the printing process from OS
             0 MiB allocation reported by mallinfo(arena+hblkhd)
        115972 MiB available memory on the node where the printing process lives
------------------
     ethr =  7.79E-08,  avg # of iterations =  7.4

     total cpu time spent up to now is     2441.1 secs

     total energy              =   -2768.17230233 Ry
     estimated scf accuracy    <       0.00017617 Ry

     total magnetization       =     0.02    -0.00    -0.00 Bohr mag/cell
     absolute magnetization    =    16.25 Bohr mag/cell

     iteration # 78     ecut=   220.00 Ry     beta= 0.25
     Davidson diagonalization with overlap

---- Real-time Memory Report at c_bands before calling an iterative solver
           321 MiB given to the printing process from OS
             0 MiB allocation reported by mallinfo(arena+hblkhd)
        116054 MiB available memory on the node where the printing process lives
------------------
     ethr =  7.79E-08,  avg # of iterations =  7.5

     total cpu time spent up to now is     2483.0 secs

     total energy              =   -2768.17433845 Ry
     estimated scf accuracy    <       0.00016274 Ry

     total magnetization       =     0.02    -0.00    -0.00 Bohr mag/cell
     absolute magnetization    =    16.33 Bohr mag/cell

     iteration # 79     ecut=   220.00 Ry     beta= 0.25
     Davidson diagonalization with overlap

---- Real-time Memory Report at c_bands before calling an iterative solver
           321 MiB given to the printing process from OS
             0 MiB allocation reported by mallinfo(arena+hblkhd)
        115970 MiB available memory on the node where the printing process lives
------------------
     ethr =  7.47E-08,  avg # of iterations =  6.9

     total cpu time spent up to now is     2523.8 secs

     total energy              =   -2768.17555451 Ry
     estimated scf accuracy    <       0.00015921 Ry

     total magnetization       =     0.02    -0.00    -0.00 Bohr mag/cell
     absolute magnetization    =    16.38 Bohr mag/cell

     iteration # 80     ecut=   220.00 Ry     beta= 0.25
     Davidson diagonalization with overlap

---- Real-time Memory Report at c_bands before calling an iterative solver
           321 MiB given to the printing process from OS
             0 MiB allocation reported by mallinfo(arena+hblkhd)
        116072 MiB available memory on the node where the printing process lives
------------------
     ethr =  7.30E-08,  avg # of iterations =  6.6

     total cpu time spent up to now is     2560.7 secs

     total energy              =   -2768.17761006 Ry
     estimated scf accuracy    <       0.00015937 Ry

     total magnetization       =     0.02    -0.00    -0.00 Bohr mag/cell
     absolute magnetization    =    16.41 Bohr mag/cell

     iteration # 81     ecut=   220.00 Ry     beta= 0.25
     Davidson diagonalization with overlap

[...]

 %%%%%%%%%%%%%%%%%%%%%%%%%%%%%%%%%%%%%%%%%%%%%%%%%%%%%%%%%%%%%%%%%%%%%%%%%%%%%%
     Error in routine ZPOTRF (1):
     Cholesky failed in invchol.
 %%%%%%%%%%%%%%%%%%%%%%%%%%%%%%%%%%%%%%%%%%%%%%%%%%%%%%%%%%%%%%%%%%%%%%%%%%%%%%

     stopping ...
 ZPOTRF exited with INFO=          219

 %%%%%%%%%%%%%%%%%%%%%%%%%%%%%%%%%%%%%%%%%%%%%%%%%%%%%%%%%%%%%%%%%%%%%%%%%%%%%%
     Error in routine ZPOTRF (1):
     Cholesky failed in invchol.
 %%%%%%%%%%%%%%%%%%%%%%%%%%%%%%%%%%%%%%%%%%%%%%%%%%%%%%%%%%%%%%%%%%%%%%%%%%%%%%

     stopping ...
 ZPOTRF exited with INFO=          219

 %%%%%%%%%%%%%%%%%%%%%%%%%%%%%%%%%%%%%%%%%%%%%%%%%%%%%%%%%%%%%%%%%%%%%%%%%%%%%%
     Error in routine ZPOTRF (1):
     Cholesky failed in invchol.
 %%%%%%%%%%%%%%%%%%%%%%%%%%%%%%%%%%%%%%%%%%%%%%%%%%%%%%%%%%%%%%%%%%%%%%%%%%%%%%

     stopping ...
 ZPOTRF exited with INFO=          219

 %%%%%%%%%%%%%%%%%%%%%%%%%%%%%%%%%%%%%%%%%%%%%%%%%%%%%%%%%%%%%%%%%%%%%%%%%%%%%%
     Error in routine ZPOTRF (1):
     Cholesky failed in invchol.
 %%%%%%%%%%%%%%%%%%%%%%%%%%%%%%%%%%%%%%%%%%%%%%%%%%%%%%%%%%%%%%%%%%%%%%%%%%%%%%

     stopping ...
 ZPOTRF exited with INFO=          219

 %%%%%%%%%%%%%%%%%%%%%%%%%%%%%%%%%%%%%%%%%%%%%%%%%%%%%%%%%%%%%%%%%%%%%%%%%%%%%%
     Error in routine ZPOTRF (1):
     Cholesky failed in invchol.
 %%%%%%%%%%%%%%%%%%%%%%%%%%%%%%%%%%%%%%%%%%%%%%%%%%%%%%%%%%%%%%%%%%%%%%%%%%%%%%

     stopping ...
 ZPOTRF exited with INFO=          219

 %%%%%%%%%%%%%%%%%%%%%%%%%%%%%%%%%%%%%%%%%%%%%%%%%%%%%%%%%%%%%%%%%%%%%%%%%%%%%%
     Error in routine ZPOTRF (1):
     Cholesky failed in invchol.
 %%%%%%%%%%%%%%%%%%%%%%%%%%%%%%%%%%%%%%%%%%%%%%%%%%%%%%%%%%%%%%%%%%%%%%%%%%%%%%

     stopping ...
 ZPOTRF exited with INFO=          219

 %%%%%%%%%%%%%%%%%%%%%%%%%%%%%%%%%%%%%%%%%%%%%%%%%%%%%%%%%%%%%%%%%%%%%%%%%%%%%%
     Error in routine ZPOTRF (1):
     Cholesky failed in invchol.
 %%%%%%%%%%%%%%%%%%%%%%%%%%%%%%%%%%%%%%%%%%%%%%%%%%%%%%%%%%%%%%%%%%%%%%%%%%%%%%

     stopping ...
 ZPOTRF exited with INFO=          219

 %%%%%%%%%%%%%%%%%%%%%%%%%%%%%%%%%%%%%%%%%%%%%%%%%%%%%%%%%%%%%%%%%%%%%%%%%%%%%%
     Error in routine ZPOTRF (1):
     Cholesky failed in invchol.
 %%%%%%%%%%%%%%%%%%%%%%%%%%%%%%%%%%%%%%%%%%%%%%%%%%%%%%%%%%%%%%%%%%%%%%%%%%%%%%

     stopping ...
 ZPOTRF exited with INFO=          219

 %%%%%%%%%%%%%%%%%%%%%%%%%%%%%%%%%%%%%%%%%%%%%%%%%%%%%%%%%%%%%%%%%%%%%%%%%%%%%%
     Error in routine ZPOTRF (1):
     Cholesky failed in invchol.
 %%%%%%%%%%%%%%%%%%%%%%%%%%%%%%%%%%%%%%%%%%%%%%%%%%%%%%%%%%%%%%%%%%%%%%%%%%%%%%

     stopping ...
 ZPOTRF exited with INFO=          219

 %%%%%%%%%%%%%%%%%%%%%%%%%%%%%%%%%%%%%%%%%%%%%%%%%%%%%%%%%%%%%%%%%%%%%%%%%%%%%%
     Error in routine ZPOTRF (1):
     Cholesky failed in invchol.
 %%%%%%%%%%%%%%%%%%%%%%%%%%%%%%%%%%%%%%%%%%%%%%%%%%%%%%%%%%%%%%%%%%%%%%%%%%%%%%

     stopping ...
 ZPOTRF exited with INFO=          219

 %%%%%%%%%%%%%%%%%%%%%%%%%%%%%%%%%%%%%%%%%%%%%%%%%%%%%%%%%%%%%%%%%%%%%%%%%%%%%%
     Error in routine ZPOTRF (1):
     Cholesky failed in invchol.
 %%%%%%%%%%%%%%%%%%%%%%%%%%%%%%%%%%%%%%%%%%%%%%%%%%%%%%%%%%%%%%%%%%%%%%%%%%%%%%

     stopping ...
 ZPOTRF exited with INFO=          219

 %%%%%%%%%%%%%%%%%%%%%%%%%%%%%%%%%%%%%%%%%%%%%%%%%%%%%%%%%%%%%%%%%%%%%%%%%%%%%%
     Error in routine ZPOTRF (1):
     Cholesky failed in invchol.
 %%%%%%%%%%%%%%%%%%%%%%%%%%%%%%%%%%%%%%%%%%%%%%%%%%%%%%%%%%%%%%%%%%%%%%%%%%%%%%

     stopping ...
 ZPOTRF exited with INFO=          219

 %%%%%%%%%%%%%%%%%%%%%%%%%%%%%%%%%%%%%%%%%%%%%%%%%%%%%%%%%%%%%%%%%%%%%%%%%%%%%%
     Error in routine ZPOTRF (1):
     Cholesky failed in invchol.
 %%%%%%%%%%%%%%%%%%%%%%%%%%%%%%%%%%%%%%%%%%%%%%%%%%%%%%%%%%%%%%%%%%%%%%%%%%%%%%

     stopping ...
 ZPOTRF exited with INFO=          219

 %%%%%%%%%%%%%%%%%%%%%%%%%%%%%%%%%%%%%%%%%%%%%%%%%%%%%%%%%%%%%%%%%%%%%%%%%%%%%%
     Error in routine ZPOTRF (1):
     Cholesky failed in invchol.
 %%%%%%%%%%%%%%%%%%%%%%%%%%%%%%%%%%%%%%%%%%%%%%%%%%%%%%%%%%%%%%%%%%%%%%%%%%%%%%

     stopping ...
 ZPOTRF exited with INFO=          219

 %%%%%%%%%%%%%%%%%%%%%%%%%%%%%%%%%%%%%%%%%%%%%%%%%%%%%%%%%%%%%%%%%%%%%%%%%%%%%%
     Error in routine ZPOTRF (1):
     Cholesky failed in invchol.
 %%%%%%%%%%%%%%%%%%%%%%%%%%%%%%%%%%%%%%%%%%%%%%%%%%%%%%%%%%%%%%%%%%%%%%%%%%%%%%

     stopping ...
 ZPOTRF exited with INFO=          219

 %%%%%%%%%%%%%%%%%%%%%%%%%%%%%%%%%%%%%%%%%%%%%%%%%%%%%%%%%%%%%%%%%%%%%%%%%%%%%%
     Error in routine ZPOTRF (1):
     Cholesky failed in invchol.
 %%%%%%%%%%%%%%%%%%%%%%%%%%%%%%%%%%%%%%%%%%%%%%%%%%%%%%%%%%%%%%%%%%%%%%%%%%%%%%

     stopping ...
 ZPOTRF exited with INFO=          219

 %%%%%%%%%%%%%%%%%%%%%%%%%%%%%%%%%%%%%%%%%%%%%%%%%%%%%%%%%%%%%%%%%%%%%%%%%%%%%%
     Error in routine ZPOTRF (1):
     Cholesky failed in invchol.
 %%%%%%%%%%%%%%%%%%%%%%%%%%%%%%%%%%%%%%%%%%%%%%%%%%%%%%%%%%%%%%%%%%%%%%%%%%%%%%

     stopping ...
 ZPOTRF exited with INFO=          219

 %%%%%%%%%%%%%%%%%%%%%%%%%%%%%%%%%%%%%%%%%%%%%%%%%%%%%%%%%%%%%%%%%%%%%%%%%%%%%%
     Error in routine ZPOTRF (1):
     Cholesky failed in invchol.
 %%%%%%%%%%%%%%%%%%%%%%%%%%%%%%%%%%%%%%%%%%%%%%%%%%%%%%%%%%%%%%%%%%%%%%%%%%%%%%

     stopping ...
 ZPOTRF exited with INFO=          219

 %%%%%%%%%%%%%%%%%%%%%%%%%%%%%%%%%%%%%%%%%%%%%%%%%%%%%%%%%%%%%%%%%%%%%%%%%%%%%%
     Error in routine ZPOTRF (1):
     Cholesky failed in invchol.
 %%%%%%%%%%%%%%%%%%%%%%%%%%%%%%%%%%%%%%%%%%%%%%%%%%%%%%%%%%%%%%%%%%%%%%%%%%%%%%

     stopping ...
 ZPOTRF exited with INFO=          219

 %%%%%%%%%%%%%%%%%%%%%%%%%%%%%%%%%%%%%%%%%%%%%%%%%%%%%%%%%%%%%%%%%%%%%%%%%%%%%%
     Error in routine ZPOTRF (1):
     Cholesky failed in invchol.
 %%%%%%%%%%%%%%%%%%%%%%%%%%%%%%%%%%%%%%%%%%%%%%%%%%%%%%%%%%%%%%%%%%%%%%%%%%%%%%

     stopping ...
 ZPOTRF exited with INFO=          219

 %%%%%%%%%%%%%%%%%%%%%%%%%%%%%%%%%%%%%%%%%%%%%%%%%%%%%%%%%%%%%%%%%%%%%%%%%%%%%%
     Error in routine ZPOTRF (1):
     Cholesky failed in invchol.
 %%%%%%%%%%%%%%%%%%%%%%%%%%%%%%%%%%%%%%%%%%%%%%%%%%%%%%%%%%%%%%%%%%%%%%%%%%%%%%

     stopping ...
 ZPOTRF exited with INFO=          219

 %%%%%%%%%%%%%%%%%%%%%%%%%%%%%%%%%%%%%%%%%%%%%%%%%%%%%%%%%%%%%%%%%%%%%%%%%%%%%%
     Error in routine ZPOTRF (1):
     Cholesky failed in invchol.
 %%%%%%%%%%%%%%%%%%%%%%%%%%%%%%%%%%%%%%%%%%%%%%%%%%%%%%%%%%%%%%%%%%%%%%%%%%%%%%

     stopping ...
 ZPOTRF exited with INFO=          219

 %%%%%%%%%%%%%%%%%%%%%%%%%%%%%%%%%%%%%%%%%%%%%%%%%%%%%%%%%%%%%%%%%%%%%%%%%%%%%%
     Error in routine ZPOTRF (1):
     Cholesky failed in invchol.
 %%%%%%%%%%%%%%%%%%%%%%%%%%%%%%%%%%%%%%%%%%%%%%%%%%%%%%%%%%%%%%%%%%%%%%%%%%%%%%

     stopping ...
 ZPOTRF exited with INFO=          219

 %%%%%%%%%%%%%%%%%%%%%%%%%%%%%%%%%%%%%%%%%%%%%%%%%%%%%%%%%%%%%%%%%%%%%%%%%%%%%%
     Error in routine ZPOTRF (1):
     Cholesky failed in invchol.
 %%%%%%%%%%%%%%%%%%%%%%%%%%%%%%%%%%%%%%%%%%%%%%%%%%%%%%%%%%%%%%%%%%%%%%%%%%%%%%

     stopping ...
 ZPOTRF exited with INFO=          219

 %%%%%%%%%%%%%%%%%%%%%%%%%%%%%%%%%%%%%%%%%%%%%%%%%%%%%%%%%%%%%%%%%%%%%%%%%%%%%%
     Error in routine ZPOTRF (1):
     Cholesky failed in invchol.
 %%%%%%%%%%%%%%%%%%%%%%%%%%%%%%%%%%%%%%%%%%%%%%%%%%%%%%%%%%%%%%%%%%%%%%%%%%%%%%

     stopping ...
 ZPOTRF exited with INFO=          219

 %%%%%%%%%%%%%%%%%%%%%%%%%%%%%%%%%%%%%%%%%%%%%%%%%%%%%%%%%%%%%%%%%%%%%%%%%%%%%%
     Error in routine ZPOTRF (1):
     Cholesky failed in invchol.
 %%%%%%%%%%%%%%%%%%%%%%%%%%%%%%%%%%%%%%%%%%%%%%%%%%%%%%%%%%%%%%%%%%%%%%%%%%%%%%

     stopping ...
 ZPOTRF exited with INFO=          219

 %%%%%%%%%%%%%%%%%%%%%%%%%%%%%%%%%%%%%%%%%%%%%%%%%%%%%%%%%%%%%%%%%%%%%%%%%%%%%%
     Error in routine ZPOTRF (1):
     Cholesky failed in invchol.
 %%%%%%%%%%%%%%%%%%%%%%%%%%%%%%%%%%%%%%%%%%%%%%%%%%%%%%%%%%%%%%%%%%%%%%%%%%%%%%

     stopping ...
 ZPOTRF exited with INFO=          219

 %%%%%%%%%%%%%%%%%%%%%%%%%%%%%%%%%%%%%%%%%%%%%%%%%%%%%%%%%%%%%%%%%%%%%%%%%%%%%%
     Error in routine ZPOTRF (1):
     Cholesky failed in invchol.
 %%%%%%%%%%%%%%%%%%%%%%%%%%%%%%%%%%%%%%%%%%%%%%%%%%%%%%%%%%%%%%%%%%%%%%%%%%%%%%

     stopping ...
 ZPOTRF exited with INFO=          219

 %%%%%%%%%%%%%%%%%%%%%%%%%%%%%%%%%%%%%%%%%%%%%%%%%%%%%%%%%%%%%%%%%%%%%%%%%%%%%%
     Error in routine ZPOTRF (1):
     Cholesky failed in invchol.
 %%%%%%%%%%%%%%%%%%%%%%%%%%%%%%%%%%%%%%%%%%%%%%%%%%%%%%%%%%%%%%%%%%%%%%%%%%%%%%

     stopping ...
 ZPOTRF exited with INFO=          219

 %%%%%%%%%%%%%%%%%%%%%%%%%%%%%%%%%%%%%%%%%%%%%%%%%%%%%%%%%%%%%%%%%%%%%%%%%%%%%%
     Error in routine ZPOTRF (1):
     Cholesky failed in invchol.
 %%%%%%%%%%%%%%%%%%%%%%%%%%%%%%%%%%%%%%%%%%%%%%%%%%%%%%%%%%%%%%%%%%%%%%%%%%%%%%

     stopping ...
 ZPOTRF exited with INFO=          219

 %%%%%%%%%%%%%%%%%%%%%%%%%%%%%%%%%%%%%%%%%%%%%%%%%%%%%%%%%%%%%%%%%%%%%%%%%%%%%%
     Error in routine ZPOTRF (1):
     Cholesky failed in invchol.
 %%%%%%%%%%%%%%%%%%%%%%%%%%%%%%%%%%%%%%%%%%%%%%%%%%%%%%%%%%%%%%%%%%%%%%%%%%%%%%

     stopping ...
 ZPOTRF exited with INFO=          219

 %%%%%%%%%%%%%%%%%%%%%%%%%%%%%%%%%%%%%%%%%%%%%%%%%%%%%%%%%%%%%%%%%%%%%%%%%%%%%%
     Error in routine ZPOTRF (1):
     Cholesky failed in invchol.
 %%%%%%%%%%%%%%%%%%%%%%%%%%%%%%%%%%%%%%%%%%%%%%%%%%%%%%%%%%%%%%%%%%%%%%%%%%%%%%

     stopping ...
 ZPOTRF exited with INFO=          219

 %%%%%%%%%%%%%%%%%%%%%%%%%%%%%%%%%%%%%%%%%%%%%%%%%%%%%%%%%%%%%%%%%%%%%%%%%%%%%%
     Error in routine ZPOTRF (1):
     Cholesky failed in invchol.
 %%%%%%%%%%%%%%%%%%%%%%%%%%%%%%%%%%%%%%%%%%%%%%%%%%%%%%%%%%%%%%%%%%%%%%%%%%%%%%

     stopping ...
 ZPOTRF exited with INFO=          219

 %%%%%%%%%%%%%%%%%%%%%%%%%%%%%%%%%%%%%%%%%%%%%%%%%%%%%%%%%%%%%%%%%%%%%%%%%%%%%%
     Error in routine ZPOTRF (1):
     Cholesky failed in invchol.
 %%%%%%%%%%%%%%%%%%%%%%%%%%%%%%%%%%%%%%%%%%%%%%%%%%%%%%%%%%%%%%%%%%%%%%%%%%%%%%

     stopping ...
 ZPOTRF exited with INFO=          219

 %%%%%%%%%%%%%%%%%%%%%%%%%%%%%%%%%%%%%%%%%%%%%%%%%%%%%%%%%%%%%%%%%%%%%%%%%%%%%%
     Error in routine ZPOTRF (1):
     Cholesky failed in invchol.
 %%%%%%%%%%%%%%%%%%%%%%%%%%%%%%%%%%%%%%%%%%%%%%%%%%%%%%%%%%%%%%%%%%%%%%%%%%%%%%

     stopping ...
 ZPOTRF exited with INFO=          219

 %%%%%%%%%%%%%%%%%%%%%%%%%%%%%%%%%%%%%%%%%%%%%%%%%%%%%%%%%%%%%%%%%%%%%%%%%%%%%%
     Error in routine ZPOTRF (1):
     Cholesky failed in invchol.
 %%%%%%%%%%%%%%%%%%%%%%%%%%%%%%%%%%%%%%%%%%%%%%%%%%%%%%%%%%%%%%%%%%%%%%%%%%%%%%

     stopping ...
 ZPOTRF exited with INFO=          219

 %%%%%%%%%%%%%%%%%%%%%%%%%%%%%%%%%%%%%%%%%%%%%%%%%%%%%%%%%%%%%%%%%%%%%%%%%%%%%%
     Error in routine ZPOTRF (1):
     Cholesky failed in invchol.
 %%%%%%%%%%%%%%%%%%%%%%%%%%%%%%%%%%%%%%%%%%%%%%%%%%%%%%%%%%%%%%%%%%%%%%%%%%%%%%

     stopping ...
 ZPOTRF exited with INFO=          219

 %%%%%%%%%%%%%%%%%%%%%%%%%%%%%%%%%%%%%%%%%%%%%%%%%%%%%%%%%%%%%%%%%%%%%%%%%%%%%%
     Error in routine ZPOTRF (1):
     Cholesky failed in invchol.
 %%%%%%%%%%%%%%%%%%%%%%%%%%%%%%%%%%%%%%%%%%%%%%%%%%%%%%%%%%%%%%%%%%%%%%%%%%%%%%

     stopping ...
 ZPOTRF exited with INFO=          219

 %%%%%%%%%%%%%%%%%%%%%%%%%%%%%%%%%%%%%%%%%%%%%%%%%%%%%%%%%%%%%%%%%%%%%%%%%%%%%%
     Error in routine ZPOTRF (1):
     Cholesky failed in invchol.
 %%%%%%%%%%%%%%%%%%%%%%%%%%%%%%%%%%%%%%%%%%%%%%%%%%%%%%%%%%%%%%%%%%%%%%%%%%%%%%

     stopping ...
 ZPOTRF exited with INFO=          219

 %%%%%%%%%%%%%%%%%%%%%%%%%%%%%%%%%%%%%%%%%%%%%%%%%%%%%%%%%%%%%%%%%%%%%%%%%%%%%%
     Error in routine ZPOTRF (1):
     Cholesky failed in invchol.
 %%%%%%%%%%%%%%%%%%%%%%%%%%%%%%%%%%%%%%%%%%%%%%%%%%%%%%%%%%%%%%%%%%%%%%%%%%%%%%

     stopping ...
 ZPOTRF exited with INFO=          219

 %%%%%%%%%%%%%%%%%%%%%%%%%%%%%%%%%%%%%%%%%%%%%%%%%%%%%%%%%%%%%%%%%%%%%%%%%%%%%%
     Error in routine ZPOTRF (1):
     Cholesky failed in invchol.
 %%%%%%%%%%%%%%%%%%%%%%%%%%%%%%%%%%%%%%%%%%%%%%%%%%%%%%%%%%%%%%%%%%%%%%%%%%%%%%

     stopping ...
 ZPOTRF exited with INFO=          219

 %%%%%%%%%%%%%%%%%%%%%%%%%%%%%%%%%%%%%%%%%%%%%%%%%%%%%%%%%%%%%%%%%%%%%%%%%%%%%%
     Error in routine ZPOTRF (1):
     Cholesky failed in invchol.
 %%%%%%%%%%%%%%%%%%%%%%%%%%%%%%%%%%%%%%%%%%%%%%%%%%%%%%%%%%%%%%%%%%%%%%%%%%%%%%

     stopping ...
 ZPOTRF exited with INFO=          219

 %%%%%%%%%%%%%%%%%%%%%%%%%%%%%%%%%%%%%%%%%%%%%%%%%%%%%%%%%%%%%%%%%%%%%%%%%%%%%%
     Error in routine ZPOTRF (1):
     Cholesky failed in invchol.
 %%%%%%%%%%%%%%%%%%%%%%%%%%%%%%%%%%%%%%%%%%%%%%%%%%%%%%%%%%%%%%%%%%%%%%%%%%%%%%

     stopping ...
 ZPOTRF exited with INFO=          219

 %%%%%%%%%%%%%%%%%%%%%%%%%%%%%%%%%%%%%%%%%%%%%%%%%%%%%%%%%%%%%%%%%%%%%%%%%%%%%%
     Error in routine ZPOTRF (1):
     Cholesky failed in invchol.
 %%%%%%%%%%%%%%%%%%%%%%%%%%%%%%%%%%%%%%%%%%%%%%%%%%%%%%%%%%%%%%%%%%%%%%%%%%%%%%

     stopping ...
 ZPOTRF exited with INFO=          219

 %%%%%%%%%%%%%%%%%%%%%%%%%%%%%%%%%%%%%%%%%%%%%%%%%%%%%%%%%%%%%%%%%%%%%%%%%%%%%%
     Error in routine ZPOTRF (1):
     Cholesky failed in invchol.
 %%%%%%%%%%%%%%%%%%%%%%%%%%%%%%%%%%%%%%%%%%%%%%%%%%%%%%%%%%%%%%%%%%%%%%%%%%%%%%

     stopping ...
 ZPOTRF exited with INFO=          219

 %%%%%%%%%%%%%%%%%%%%%%%%%%%%%%%%%%%%%%%%%%%%%%%%%%%%%%%%%%%%%%%%%%%%%%%%%%%%%%
     Error in routine ZPOTRF (1):
     Cholesky failed in invchol.
 %%%%%%%%%%%%%%%%%%%%%%%%%%%%%%%%%%%%%%%%%%%%%%%%%%%%%%%%%%%%%%%%%%%%%%%%%%%%%%

     stopping ...
 ZPOTRF exited with INFO=          219

 %%%%%%%%%%%%%%%%%%%%%%%%%%%%%%%%%%%%%%%%%%%%%%%%%%%%%%%%%%%%%%%%%%%%%%%%%%%%%%
     Error in routine ZPOTRF (1):
     Cholesky failed in invchol.
 %%%%%%%%%%%%%%%%%%%%%%%%%%%%%%%%%%%%%%%%%%%%%%%%%%%%%%%%%%%%%%%%%%%%%%%%%%%%%%

     stopping ...
 ZPOTRF exited with INFO=          219

 %%%%%%%%%%%%%%%%%%%%%%%%%%%%%%%%%%%%%%%%%%%%%%%%%%%%%%%%%%%%%%%%%%%%%%%%%%%%%%
     Error in routine ZPOTRF (1):
     Cholesky failed in invchol.
 %%%%%%%%%%%%%%%%%%%%%%%%%%%%%%%%%%%%%%%%%%%%%%%%%%%%%%%%%%%%%%%%%%%%%%%%%%%%%%

     stopping ...
 ZPOTRF exited with INFO=          219

 %%%%%%%%%%%%%%%%%%%%%%%%%%%%%%%%%%%%%%%%%%%%%%%%%%%%%%%%%%%%%%%%%%%%%%%%%%%%%%
     Error in routine ZPOTRF (1):
     Cholesky failed in invchol.
 %%%%%%%%%%%%%%%%%%%%%%%%%%%%%%%%%%%%%%%%%%%%%%%%%%%%%%%%%%%%%%%%%%%%%%%%%%%%%%

     stopping ...
 ZPOTRF exited with INFO=          219

 %%%%%%%%%%%%%%%%%%%%%%%%%%%%%%%%%%%%%%%%%%%%%%%%%%%%%%%%%%%%%%%%%%%%%%%%%%%%%%
     Error in routine ZPOTRF (1):
     Cholesky failed in invchol.
 %%%%%%%%%%%%%%%%%%%%%%%%%%%%%%%%%%%%%%%%%%%%%%%%%%%%%%%%%%%%%%%%%%%%%%%%%%%%%%

     stopping ...
 ZPOTRF exited with INFO=          219

 %%%%%%%%%%%%%%%%%%%%%%%%%%%%%%%%%%%%%%%%%%%%%%%%%%%%%%%%%%%%%%%%%%%%%%%%%%%%%%
     Error in routine ZPOTRF (1):
     Cholesky failed in invchol.
 %%%%%%%%%%%%%%%%%%%%%%%%%%%%%%%%%%%%%%%%%%%%%%%%%%%%%%%%%%%%%%%%%%%%%%%%%%%%%%

     stopping ...
 ZPOTRF exited with INFO=          219

 %%%%%%%%%%%%%%%%%%%%%%%%%%%%%%%%%%%%%%%%%%%%%%%%%%%%%%%%%%%%%%%%%%%%%%%%%%%%%%
     Error in routine ZPOTRF (1):
     Cholesky failed in invchol.
 %%%%%%%%%%%%%%%%%%%%%%%%%%%%%%%%%%%%%%%%%%%%%%%%%%%%%%%%%%%%%%%%%%%%%%%%%%%%%%

     stopping ...
 ZPOTRF exited with INFO=          219

 %%%%%%%%%%%%%%%%%%%%%%%%%%%%%%%%%%%%%%%%%%%%%%%%%%%%%%%%%%%%%%%%%%%%%%%%%%%%%%
     Error in routine ZPOTRF (1):
     Cholesky failed in invchol.
 %%%%%%%%%%%%%%%%%%%%%%%%%%%%%%%%%%%%%%%%%%%%%%%%%%%%%%%%%%%%%%%%%%%%%%%%%%%%%%

     stopping ...
 ZPOTRF exited with INFO=          219

 %%%%%%%%%%%%%%%%%%%%%%%%%%%%%%%%%%%%%%%%%%%%%%%%%%%%%%%%%%%%%%%%%%%%%%%%%%%%%%
     Error in routine ZPOTRF (1):
     Cholesky failed in invchol.
 %%%%%%%%%%%%%%%%%%%%%%%%%%%%%%%%%%%%%%%%%%%%%%%%%%%%%%%%%%%%%%%%%%%%%%%%%%%%%%

     stopping ...
 ZPOTRF exited with INFO=          219

 %%%%%%%%%%%%%%%%%%%%%%%%%%%%%%%%%%%%%%%%%%%%%%%%%%%%%%%%%%%%%%%%%%%%%%%%%%%%%%
     Error in routine ZPOTRF (1):
     Cholesky failed in invchol.
 %%%%%%%%%%%%%%%%%%%%%%%%%%%%%%%%%%%%%%%%%%%%%%%%%%%%%%%%%%%%%%%%%%%%%%%%%%%%%%

     stopping ...
 ZPOTRF exited with INFO=          219

 %%%%%%%%%%%%%%%%%%%%%%%%%%%%%%%%%%%%%%%%%%%%%%%%%%%%%%%%%%%%%%%%%%%%%%%%%%%%%%
     Error in routine ZPOTRF (1):
     Cholesky failed in invchol.
 %%%%%%%%%%%%%%%%%%%%%%%%%%%%%%%%%%%%%%%%%%%%%%%%%%%%%%%%%%%%%%%%%%%%%%%%%%%%%%

     stopping ...
 ZPOTRF exited with INFO=          219

 %%%%%%%%%%%%%%%%%%%%%%%%%%%%%%%%%%%%%%%%%%%%%%%%%%%%%%%%%%%%%%%%%%%%%%%%%%%%%%
     Error in routine ZPOTRF (1):
     Cholesky failed in invchol.
 %%%%%%%%%%%%%%%%%%%%%%%%%%%%%%%%%%%%%%%%%%%%%%%%%%%%%%%%%%%%%%%%%%%%%%%%%%%%%%

     stopping ...
 ZPOTRF exited with INFO=          219

 %%%%%%%%%%%%%%%%%%%%%%%%%%%%%%%%%%%%%%%%%%%%%%%%%%%%%%%%%%%%%%%%%%%%%%%%%%%%%%
     Error in routine ZPOTRF (1):
     Cholesky failed in invchol.
 %%%%%%%%%%%%%%%%%%%%%%%%%%%%%%%%%%%%%%%%%%%%%%%%%%%%%%%%%%%%%%%%%%%%%%%%%%%%%%

     stopping ...
 ZPOTRF exited with INFO=          219

 %%%%%%%%%%%%%%%%%%%%%%%%%%%%%%%%%%%%%%%%%%%%%%%%%%%%%%%%%%%%%%%%%%%%%%%%%%%%%%
     Error in routine ZPOTRF (1):
     Cholesky failed in invchol.
 %%%%%%%%%%%%%%%%%%%%%%%%%%%%%%%%%%%%%%%%%%%%%%%%%%%%%%%%%%%%%%%%%%%%%%%%%%%%%%

     stopping ...
 ZPOTRF exited with INFO=          219

 %%%%%%%%%%%%%%%%%%%%%%%%%%%%%%%%%%%%%%%%%%%%%%%%%%%%%%%%%%%%%%%%%%%%%%%%%%%%%%
     Error in routine ZPOTRF (1):
     Cholesky failed in invchol.
 %%%%%%%%%%%%%%%%%%%%%%%%%%%%%%%%%%%%%%%%%%%%%%%%%%%%%%%%%%%%%%%%%%%%%%%%%%%%%%

     stopping ...
 ZPOTRF exited with INFO=          219

 %%%%%%%%%%%%%%%%%%%%%%%%%%%%%%%%%%%%%%%%%%%%%%%%%%%%%%%%%%%%%%%%%%%%%%%%%%%%%%
     Error in routine ZPOTRF (1):
     Cholesky failed in invchol.
 %%%%%%%%%%%%%%%%%%%%%%%%%%%%%%%%%%%%%%%%%%%%%%%%%%%%%%%%%%%%%%%%%%%%%%%%%%%%%%

     stopping ...
 ZPOTRF exited with INFO=          219

 %%%%%%%%%%%%%%%%%%%%%%%%%%%%%%%%%%%%%%%%%%%%%%%%%%%%%%%%%%%%%%%%%%%%%%%%%%%%%%
     Error in routine ZPOTRF (1):
     Cholesky failed in invchol.
 %%%%%%%%%%%%%%%%%%%%%%%%%%%%%%%%%%%%%%%%%%%%%%%%%%%%%%%%%%%%%%%%%%%%%%%%%%%%%%

     stopping ...
 ZPOTRF exited with INFO=          219

 %%%%%%%%%%%%%%%%%%%%%%%%%%%%%%%%%%%%%%%%%%%%%%%%%%%%%%%%%%%%%%%%%%%%%%%%%%%%%%
     Error in routine ZPOTRF (1):
     Cholesky failed in invchol.
 %%%%%%%%%%%%%%%%%%%%%%%%%%%%%%%%%%%%%%%%%%%%%%%%%%%%%%%%%%%%%%%%%%%%%%%%%%%%%%

     stopping ...
 ZPOTRF exited with INFO=          219

 %%%%%%%%%%%%%%%%%%%%%%%%%%%%%%%%%%%%%%%%%%%%%%%%%%%%%%%%%%%%%%%%%%%%%%%%%%%%%%
     Error in routine ZPOTRF (1):
     Cholesky failed in invchol.
 %%%%%%%%%%%%%%%%%%%%%%%%%%%%%%%%%%%%%%%%%%%%%%%%%%%%%%%%%%%%%%%%%%%%%%%%%%%%%%

     stopping ...
 ZPOTRF exited with INFO=          219

 %%%%%%%%%%%%%%%%%%%%%%%%%%%%%%%%%%%%%%%%%%%%%%%%%%%%%%%%%%%%%%%%%%%%%%%%%%%%%%
     Error in routine ZPOTRF (1):
     Cholesky failed in invchol.
 %%%%%%%%%%%%%%%%%%%%%%%%%%%%%%%%%%%%%%%%%%%%%%%%%%%%%%%%%%%%%%%%%%%%%%%%%%%%%%

     stopping ...
 ZPOTRF exited with INFO=          219

 %%%%%%%%%%%%%%%%%%%%%%%%%%%%%%%%%%%%%%%%%%%%%%%%%%%%%%%%%%%%%%%%%%%%%%%%%%%%%%
     Error in routine ZPOTRF (1):
     Cholesky failed in invchol.
 %%%%%%%%%%%%%%%%%%%%%%%%%%%%%%%%%%%%%%%%%%%%%%%%%%%%%%%%%%%%%%%%%%%%%%%%%%%%%%

     stopping ...
 ZPOTRF exited with INFO=          219

 %%%%%%%%%%%%%%%%%%%%%%%%%%%%%%%%%%%%%%%%%%%%%%%%%%%%%%%%%%%%%%%%%%%%%%%%%%%%%%
     Error in routine ZPOTRF (1):
     Cholesky failed in invchol.
 %%%%%%%%%%%%%%%%%%%%%%%%%%%%%%%%%%%%%%%%%%%%%%%%%%%%%%%%%%%%%%%%%%%%%%%%%%%%%%

     stopping ...
 ZPOTRF exited with INFO=          219

 %%%%%%%%%%%%%%%%%%%%%%%%%%%%%%%%%%%%%%%%%%%%%%%%%%%%%%%%%%%%%%%%%%%%%%%%%%%%%%
     Error in routine ZPOTRF (1):
     Cholesky failed in invchol.
 %%%%%%%%%%%%%%%%%%%%%%%%%%%%%%%%%%%%%%%%%%%%%%%%%%%%%%%%%%%%%%%%%%%%%%%%%%%%%%

     stopping ...
 ZPOTRF exited with INFO=          219

 %%%%%%%%%%%%%%%%%%%%%%%%%%%%%%%%%%%%%%%%%%%%%%%%%%%%%%%%%%%%%%%%%%%%%%%%%%%%%%
     Error in routine ZPOTRF (1):
     Cholesky failed in invchol.
 %%%%%%%%%%%%%%%%%%%%%%%%%%%%%%%%%%%%%%%%%%%%%%%%%%%%%%%%%%%%%%%%%%%%%%%%%%%%%%

     stopping ...
 ZPOTRF exited with INFO=          219

 %%%%%%%%%%%%%%%%%%%%%%%%%%%%%%%%%%%%%%%%%%%%%%%%%%%%%%%%%%%%%%%%%%%%%%%%%%%%%%
     Error in routine ZPOTRF (1):
     Cholesky failed in invchol.
 %%%%%%%%%%%%%%%%%%%%%%%%%%%%%%%%%%%%%%%%%%%%%%%%%%%%%%%%%%%%%%%%%%%%%%%%%%%%%%

     stopping ...
