
     Program PWSCF v.6.2 (svn rev. 14038) starts on 25May2018 at 10:13:32 

     This program is part of the open-source Quantum ESPRESSO suite
     for quantum simulation of materials; please cite
         "P. Giannozzi et al., J. Phys.:Condens. Matter 21 395502 (2009);
         "P. Giannozzi et al., J. Phys.:Condens. Matter 29 465901 (2017);
          URL http://www.quantum-espresso.org", 
     in publications or presentations arising from this work. More details at
     http://www.quantum-espresso.org/quote

     Parallel version (MPI), running on   936 processors

     MPI processes distributed on    26 nodes
     K-points division:     npool     =      13
     R & G space division:  proc/nbgrp/npool/nimage =      72
     Reading input from scf.in
     Message from routine read_cards :
     DEPRECATED: no units specified in CELL_PARAMETERS card

     Current dimensions of program PWSCF are:
     Max number of different atomic species (ntypx) = 10
     Max number of k-points (npk) =  40000
     Max angular momentum in pseudopotentials (lmaxx) =  3

     IMPORTANT: XC functional enforced from input :
     Exchange-correlation      = HF ( 5  0  0  0 0 0)
     EXX-fraction              =        1.00
     Any further DFT definition will be discarded
     Please, verify this is what you really want


     Subspace diagonalization in iterative solution of the eigenvalue problem:
     one sub-group per band group will be used
     scalapack distributed-memory algorithm (size of sub-group:  6*  6 procs)

     EXX: setup a grid of 216 q-points centered on each k-point
     (k+q)-points:
   0.0042711   0.0042711   0.0042711         1    1
  -0.0076880  -0.0076880   0.0367314         2    1
  -0.0196470  -0.0196470   0.0691917         3    1
   0.0401482   0.0401482  -0.0931098         4    1
   0.0281892   0.0281892  -0.0606495         5    1
   0.0162301   0.0162301  -0.0281892         6    1
  -0.0076880   0.0367314  -0.0076880         2   -4
  -0.0196470   0.0247723   0.0247723         7    1
  -0.0316061   0.0128133   0.0572326         8    1
   0.0281892   0.0726085  -0.1050688         9    1
   0.0162301   0.0606495  -0.0726085        10    1
   0.0042711   0.0486904  -0.0401482        11    1
  -0.0196470   0.0691917  -0.0196470         3   -4
  -0.0316061   0.0572326   0.0128133         8   -4
  -0.0435651   0.0452736   0.0452736        12    1
   0.0162301   0.1050688  -0.1170279        13    1
   0.0042711   0.0931098  -0.0845676        14    1
  -0.0076880   0.0811507  -0.0521073        15    1
   0.0401482  -0.0931098   0.0401482         4   -4
   0.0281892  -0.1050688   0.0726085         9   -4
   0.0162301  -0.1170279   0.1050688        13   -4
   0.0760254  -0.0572326  -0.0572326        16    1
   0.0640664  -0.0691917  -0.0247723        17    1
   0.0521073  -0.0811507   0.0076880        15    3
   0.0281892  -0.0606495   0.0281892         5   -4
   0.0162301  -0.0726085   0.0606495        10   -4
   0.0042711  -0.0845676   0.0931098        14   -4
   0.0640664  -0.0247723  -0.0691917        17   -4
   0.0521073  -0.0367314  -0.0367314        18    1
   0.0401482  -0.0486904  -0.0042711        11    3
   0.0162301  -0.0281892   0.0162301         6   -4
   0.0042711  -0.0401482   0.0486904        11   -4
  -0.0076880  -0.0521073   0.0811507        15   -4
   0.0521073   0.0076880  -0.0811507        15   -5
   0.0401482  -0.0042711  -0.0486904        11   -5
   0.0281892  -0.0162301  -0.0162301         6    3
   0.0367314  -0.0076880  -0.0076880         2   -3
   0.0247723  -0.0196470   0.0247723         7   -2
   0.0128133  -0.0316061   0.0572326         8   -2
   0.0726085   0.0281892  -0.1050688         9   -2
   0.0606495   0.0162301  -0.0726085        10   -2
   0.0486904   0.0042711  -0.0401482        11   -2
   0.0247723   0.0247723  -0.0196470         7   -3
   0.0128133   0.0128133   0.0128133        19    1
   0.0008542   0.0008542   0.0452736        20    1
   0.0606495   0.0606495  -0.1170279        21    1
   0.0486904   0.0486904  -0.0845676        22    1
   0.0367314   0.0367314  -0.0521073        18    3
   0.0128133   0.0572326  -0.0316061         8    6
   0.0008542   0.0452736   0.0008542        20   -4
  -0.0111048   0.0333145   0.0333145        23    1
   0.0486904   0.0931098  -0.1289869        24    1
   0.0367314   0.0811507  -0.0965266        25    1
   0.0247723   0.0691917  -0.0640664        17    3
   0.0726085  -0.1050688   0.0281892         9    6
   0.0606495  -0.1170279   0.0606495        21   -4
   0.0486904  -0.1289869   0.0931098        24   -4
   0.1084857  -0.0691917  -0.0691917        26    1
   0.0965266  -0.0811507  -0.0367314        25    3
   0.0845676  -0.0931098  -0.0042711        14    3
   0.0606495  -0.0726085   0.0162301        10    6
   0.0486904  -0.0845676   0.0486904        22   -4
   0.0367314  -0.0965266   0.0811507        25   -4
   0.0965266  -0.0367314  -0.0811507        25   -5
   0.0845676  -0.0486904  -0.0486904        22    3
   0.0726085  -0.0606495  -0.0162301        10    3
   0.0486904  -0.0401482   0.0042711        11    6
   0.0367314  -0.0521073   0.0367314        18    2
   0.0247723  -0.0640664   0.0691917        17   -5
   0.0845676  -0.0042711  -0.0931098        14   -5
   0.0726085  -0.0162301  -0.0606495        10   -5
   0.0606495  -0.0281892  -0.0281892         5    3
   0.0691917  -0.0196470  -0.0196470         3   -3
   0.0572326  -0.0316061   0.0128133         8    5
   0.0452736  -0.0435651   0.0452736        12   -2
   0.1050688   0.0162301  -0.1170279        13   -2
   0.0931098   0.0042711  -0.0845676        14   -2
   0.0811507  -0.0076880  -0.0521073        15   -2
   0.0572326   0.0128133  -0.0316061         8   -3
   0.0452736   0.0008542   0.0008542        20   -3
   0.0333145  -0.0111048   0.0333145        23   -2
   0.0931098   0.0486904  -0.1289869        24   -2
   0.0811507   0.0367314  -0.0965266        25   -2
   0.0691917   0.0247723  -0.0640664        17   -6
   0.0452736   0.0452736  -0.0435651        12   -3
   0.0333145   0.0333145  -0.0111048        23   -3
   0.0213555   0.0213555   0.0213555        27    1
   0.0811507   0.0811507  -0.1409460        28    1
   0.0691917   0.0691917  -0.1084857        26    3
   0.0572326   0.0572326  -0.0760254        16    3
   0.1050688  -0.1170279   0.0162301        13    6
   0.0931098  -0.1289869   0.0486904        24    6
   0.0811507  -0.1409460   0.0811507        28   -4
   0.1409460  -0.0811507  -0.0811507        28    3
   0.1289869  -0.0931098  -0.0486904        24    3
   0.1170279  -0.1050688  -0.0162301        13    3
   0.0931098  -0.0845676   0.0042711        14    6
   0.0811507  -0.0965266   0.0367314        25    6
   0.0691917  -0.1084857   0.0691917        26    2
   0.1289869  -0.0486904  -0.0931098        24   -5
   0.1170279  -0.0606495  -0.0606495        21    3
   0.1050688  -0.0726085  -0.0281892         9    3
   0.0811507  -0.0521073  -0.0076880        15    6
   0.0691917  -0.0640664   0.0247723        17    2
   0.0572326  -0.0760254   0.0572326        16    2
   0.1170279  -0.0162301  -0.1050688        13   -5
   0.1050688  -0.0281892  -0.0726085         9   -5
   0.0931098  -0.0401482  -0.0401482         4    3
  -0.0931098   0.0401482   0.0401482         4   -3
  -0.1050688   0.0281892   0.0726085         9    5
  -0.1170279   0.0162301   0.1050688        13    5
  -0.0572326   0.0760254  -0.0572326        16   -2
  -0.0691917   0.0640664  -0.0247723        17   -2
  -0.0811507   0.0521073   0.0076880        15   -6
  -0.1050688   0.0726085   0.0281892         9   -3
  -0.1170279   0.0606495   0.0606495        21   -3
  -0.1289869   0.0486904   0.0931098        24    5
  -0.0691917   0.1084857  -0.0691917        26   -2
  -0.0811507   0.0965266  -0.0367314        25   -6
  -0.0931098   0.0845676  -0.0042711        14   -6
  -0.1170279   0.1050688   0.0162301        13   -3
  -0.1289869   0.0931098   0.0486904        24   -3
  -0.1409460   0.0811507   0.0811507        28   -3
  -0.0811507   0.1409460  -0.0811507        28    4
  -0.0931098   0.1289869  -0.0486904        24   -6
  -0.1050688   0.1170279  -0.0162301        13   -6
  -0.0572326  -0.0572326   0.0760254        16   -3
  -0.0691917  -0.0691917   0.1084857        26   -3
  -0.0811507  -0.0811507   0.1409460        28   -1
  -0.0213555  -0.0213555  -0.0213555        27   -1
  -0.0333145  -0.0333145   0.0111048        23    3
  -0.0452736  -0.0452736   0.0435651        12    3
  -0.0691917  -0.0247723   0.0640664        17    6
  -0.0811507  -0.0367314   0.0965266        25    2
  -0.0931098  -0.0486904   0.1289869        24    2
  -0.0333145   0.0111048  -0.0333145        23    2
  -0.0452736  -0.0008542  -0.0008542        20    3
  -0.0572326  -0.0128133   0.0316061         8    3
  -0.0811507   0.0076880   0.0521073        15    2
  -0.0931098  -0.0042711   0.0845676        14    2
  -0.1050688  -0.0162301   0.1170279        13    2
  -0.0452736   0.0435651  -0.0452736        12    2
  -0.0572326   0.0316061  -0.0128133         8   -5
  -0.0691917   0.0196470   0.0196470         3    3
  -0.0606495   0.0281892   0.0281892         5   -3
  -0.0726085   0.0162301   0.0606495        10    5
  -0.0845676   0.0042711   0.0931098        14    5
  -0.0247723   0.0640664  -0.0691917        17    5
  -0.0367314   0.0521073  -0.0367314        18   -2
  -0.0486904   0.0401482  -0.0042711        11   -6
  -0.0726085   0.0606495   0.0162301        10   -3
  -0.0845676   0.0486904   0.0486904        22   -3
  -0.0965266   0.0367314   0.0811507        25    5
  -0.0367314   0.0965266  -0.0811507        25    4
  -0.0486904   0.0845676  -0.0486904        22    4
  -0.0606495   0.0726085  -0.0162301        10   -6
  -0.0845676   0.0931098   0.0042711        14   -3
  -0.0965266   0.0811507   0.0367314        25   -3
  -0.1084857   0.0691917   0.0691917        26   -1
  -0.0486904   0.1289869  -0.0931098        24    4
  -0.0606495   0.1170279  -0.0606495        21    4
  -0.0726085   0.1050688  -0.0281892         9   -6
  -0.0247723  -0.0691917   0.0640664        17   -3
  -0.0367314  -0.0811507   0.0965266        25   -1
  -0.0486904  -0.0931098   0.1289869        24   -1
   0.0111048  -0.0333145  -0.0333145        23   -1
  -0.0008542  -0.0452736  -0.0008542        20    4
  -0.0128133  -0.0572326   0.0316061         8   -6
  -0.0367314  -0.0367314   0.0521073        18   -3
  -0.0486904  -0.0486904   0.0845676        22   -1
  -0.0606495  -0.0606495   0.1170279        21   -1
  -0.0008542  -0.0008542  -0.0452736        20   -1
  -0.0128133  -0.0128133  -0.0128133        19   -1
  -0.0247723  -0.0247723   0.0196470         7    3
  -0.0486904  -0.0042711   0.0401482        11    2
  -0.0606495  -0.0162301   0.0726085        10    2
  -0.0726085  -0.0281892   0.1050688         9    2
  -0.0128133   0.0316061  -0.0572326         8    2
  -0.0247723   0.0196470  -0.0247723         7    2
  -0.0367314   0.0076880   0.0076880         2    3
  -0.0281892   0.0162301   0.0162301         6   -3
  -0.0401482   0.0042711   0.0486904        11    5
  -0.0521073  -0.0076880   0.0811507        15    5
   0.0076880   0.0521073  -0.0811507        15    4
  -0.0042711   0.0401482  -0.0486904        11    4
  -0.0162301   0.0281892  -0.0162301         6    4
  -0.0401482   0.0486904   0.0042711        11   -3
  -0.0521073   0.0367314   0.0367314        18   -1
  -0.0640664   0.0247723   0.0691917        17    4
  -0.0042711   0.0845676  -0.0931098        14    4
  -0.0162301   0.0726085  -0.0606495        10    4
  -0.0281892   0.0606495  -0.0281892         5    4
  -0.0521073   0.0811507  -0.0076880        15   -3
  -0.0640664   0.0691917   0.0247723        17   -1
  -0.0760254   0.0572326   0.0572326        16   -1
  -0.0162301   0.1170279  -0.1050688        13    4
  -0.0281892   0.1050688  -0.0726085         9    4
  -0.0401482   0.0931098  -0.0401482         4    4
   0.0076880  -0.0811507   0.0521073        15   -1
  -0.0042711  -0.0931098   0.0845676        14   -1
  -0.0162301  -0.1050688   0.1170279        13   -1
   0.0435651  -0.0452736  -0.0452736        12   -1
   0.0316061  -0.0572326  -0.0128133         8    4
   0.0196470  -0.0691917   0.0196470         3    4
  -0.0042711  -0.0486904   0.0401482        11   -1
  -0.0162301  -0.0606495   0.0726085        10   -1
  -0.0281892  -0.0726085   0.1050688         9   -1
   0.0316061  -0.0128133  -0.0572326         8   -1
   0.0196470  -0.0247723  -0.0247723         7   -1
   0.0076880  -0.0367314   0.0076880         2    4
  -0.0162301  -0.0162301   0.0281892         6   -1
  -0.0281892  -0.0281892   0.0606495         5   -1
  -0.0401482  -0.0401482   0.0931098         4   -1
   0.0196470   0.0196470  -0.0691917         3   -1
   0.0076880   0.0076880  -0.0367314         2   -1
  -0.0042711  -0.0042711  -0.0042711         1   -1
 
     Parallelization info
     --------------------
     sticks:   dense  smooth     PW     G-vecs:    dense   smooth      PW
     Min          80      80     22                 2678     2678     403
     Max          81      81     23                 2681     2681     407
     Sum        5777    5777   1637               192893   192893   29185
 


     bravais-lattice index     =            0
     lattice parameter (alat)  =       1.0000  a.u.
     unit-cell volume          =     274.6840 (a.u.)^3
     number of atoms/cell      =            4
     number of atomic types    =            3
     number of electrons       =        44.00 (up:  22.00, down:  22.00)
     number of Kohn-Sham states=           64
     kinetic-energy cutoff     =     300.0000  Ry
     charge density cutoff     =    1200.0000  Ry
     cutoff for Fock operator  =    1200.0000  Ry
     convergence threshold     =      1.0E-10
     mixing beta               =       0.3000
     number of iterations used =            8  plain     mixing
     Exchange-correlation      = HF ( 5  0  0  0 0 0)
     EXX-fraction              =        1.00

     celldm(1)=   1.000000  celldm(2)=   0.000000  celldm(3)=   0.000000
     celldm(4)=   0.000000  celldm(5)=   0.000000  celldm(6)=   0.000000

     crystal axes: (cart. coord. in units of alat)
               a(1) = (   9.005087   5.252967   5.252967 )  
               a(2) = (   5.252967   9.005087   5.252967 )  
               a(3) = (   5.252967   5.252967   9.005087 )  

     reciprocal axes: (cart. coord. in units 2 pi/alat)
               b(1) = (  0.194762 -0.071754 -0.071754 )  
               b(2) = ( -0.071754  0.194762 -0.071754 )  
               b(3) = ( -0.071754 -0.071754  0.194762 )  


     PseudoPot. # 1 for Fe read from file:
     ../Fe.opt.upf
     MD5 check sum: 0a1f874e4978502669d7d49c3d82089b
     Pseudo is Norm-conserving, Zval = 16.0
     Generated by new atomic code, or converted to UPF format
     Using radial grid of 1160 points,  2 beta functions with: 
                l(1) =   0
                l(2) =   2

     PseudoPot. # 2 for Fe read from file:
     ../Fe.opt.upf
     MD5 check sum: 0a1f874e4978502669d7d49c3d82089b
     Pseudo is Norm-conserving, Zval = 16.0
     Generated by new atomic code, or converted to UPF format
     Using radial grid of 1160 points,  2 beta functions with: 
                l(1) =   0
                l(2) =   2

     PseudoPot. # 3 for O  read from file:
     ../O.opt.upf
     MD5 check sum: 0b670aeee1f35195f09134313df81f8f
     Pseudo is Norm-conserving, Zval =  6.0
     Generated by new atomic code, or converted to UPF format
     Using radial grid of 1130 points,  1 beta functions with: 
                l(1) =   1

     atomic species   valence    mass     pseudopotential
        Fe1           16.00    55.84500     Fe( 1.00)
        Fe2           16.00    55.84500     Fe( 1.00)
        O              6.00    15.99900     O ( 1.00)

     Starting magnetic structure 
     atomic species   magnetization
        Fe1         -0.500
        Fe2          0.500
        O            0.000

     12 Sym. Ops., with inversion, found


                                    s                        frac. trans.

      isym =  1     identity                                     

 cryst.   s( 1) = (     1          0          0      )
                  (     0          1          0      )
                  (     0          0          1      )

 cart.    s( 1) = (  1.0000000 -0.0000000  0.0000000 )
                  ( -0.0000000  1.0000000  0.0000000 )
                  ( -0.0000000 -0.0000000  1.0000000 )


      isym =  2     180 deg rotation - cart. axis [1,-1,0]       

 cryst.   s( 2) = (     0         -1          0      )
                  (    -1          0          0      )
                  (     0          0         -1      )

 cart.    s( 2) = (  0.0000000 -1.0000000  0.0000000 )
                  ( -1.0000000  0.0000000  0.0000000 )
                  (  0.0000000  0.0000000 -1.0000000 )


      isym =  3     180 deg rotation - cart. axis [-1,0,1]       

 cryst.   s( 3) = (     0          0         -1      )
                  (     0         -1          0      )
                  (    -1          0          0      )

 cart.    s( 3) = (  0.0000000  0.0000000 -1.0000000 )
                  (  0.0000000 -1.0000000  0.0000000 )
                  ( -1.0000000  0.0000000  0.0000000 )


      isym =  4     180 deg rotation - cart. axis [0,1,-1]       

 cryst.   s( 4) = (    -1          0          0      )
                  (     0          0         -1      )
                  (     0         -1          0      )

 cart.    s( 4) = ( -1.0000000  0.0000000  0.0000000 )
                  (  0.0000000  0.0000000 -1.0000000 )
                  (  0.0000000 -1.0000000  0.0000000 )


      isym =  5     120 deg rotation - cart. axis [-1,-1,-1]     

 cryst.   s( 5) = (     0          0          1      )
                  (     1          0          0      )
                  (     0          1          0      )

 cart.    s( 5) = (  0.0000000  1.0000000 -0.0000000 )
                  (  0.0000000 -0.0000000  1.0000000 )
                  (  1.0000000 -0.0000000 -0.0000000 )


      isym =  6     120 deg rotation - cart. axis [1,1,1]        

 cryst.   s( 6) = (     0          1          0      )
                  (     0          0          1      )
                  (     1          0          0      )

 cart.    s( 6) = ( -0.0000000  0.0000000  1.0000000 )
                  (  1.0000000  0.0000000 -0.0000000 )
                  ( -0.0000000  1.0000000 -0.0000000 )


      isym =  7     inversion                                    

 cryst.   s( 7) = (    -1          0          0      )
                  (     0         -1          0      )
                  (     0          0         -1      )

 cart.    s( 7) = ( -1.0000000  0.0000000  0.0000000 )
                  (  0.0000000 -1.0000000  0.0000000 )
                  (  0.0000000  0.0000000 -1.0000000 )


      isym =  8     inv. 180 deg rotation - cart. axis [1,-1,0]  

 cryst.   s( 8) = (     0          1          0      )
                  (     1          0          0      )
                  (     0          0          1      )

 cart.    s( 8) = ( -0.0000000  1.0000000  0.0000000 )
                  (  1.0000000 -0.0000000  0.0000000 )
                  ( -0.0000000 -0.0000000  1.0000000 )


      isym =  9     inv. 180 deg rotation - cart. axis [-1,0,1]  

 cryst.   s( 9) = (     0          0          1      )
                  (     0          1          0      )
                  (     1          0          0      )

 cart.    s( 9) = (  0.0000000 -0.0000000  1.0000000 )
                  (  0.0000000  1.0000000 -0.0000000 )
                  (  1.0000000 -0.0000000 -0.0000000 )


      isym = 10     inv. 180 deg rotation - cart. axis [0,1,-1]  

 cryst.   s(10) = (     1          0          0      )
                  (     0          0          1      )
                  (     0          1          0      )

 cart.    s(10) = (  1.0000000  0.0000000 -0.0000000 )
                  ( -0.0000000  0.0000000  1.0000000 )
                  ( -0.0000000  1.0000000 -0.0000000 )


      isym = 11     inv. 120 deg rotation - cart. axis [-1,-1,-1]

 cryst.   s(11) = (     0          0         -1      )
                  (    -1          0          0      )
                  (     0         -1          0      )

 cart.    s(11) = (  0.0000000 -1.0000000  0.0000000 )
                  (  0.0000000  0.0000000 -1.0000000 )
                  ( -1.0000000  0.0000000  0.0000000 )


      isym = 12     inv. 120 deg rotation - cart. axis [1,1,1]   

 cryst.   s(12) = (     0         -1          0      )
                  (     0          0         -1      )
                  (    -1          0          0      )

 cart.    s(12) = (  0.0000000  0.0000000 -1.0000000 )
                  ( -1.0000000  0.0000000  0.0000000 )
                  (  0.0000000 -1.0000000  0.0000000 )


   Cartesian axes

     site n.     atom                  positions (alat units)
         1           Fe1 tau(   1) = (   0.0000000   0.0000000   0.0000000  )
         2           Fe2 tau(   2) = (   9.7555107   9.7555107   9.7555107  )
         3           O   tau(   3) = (   4.8777554   4.8777554   4.8777554  )
         4           O   tau(   4) = (  14.6332661  14.6332661  14.6332661  )

   Crystallographic axes

     site n.     atom                  positions (cryst. coord.)
         1           Fe1 tau(   1) = (  0.0000000  0.0000000  0.0000000  )
         2           Fe2 tau(   2) = (  0.5000000  0.5000000  0.5000000  )
         3           O   tau(   3) = (  0.2500000  0.2500000  0.2500000  )
         4           O   tau(   4) = (  0.7500000  0.7500000  0.7500000  )

     number of k points=    28  Fermi-Dirac smearing, width (Ry)=  0.0010
                       cart. coord. in units 2pi/alat
        k(    1) = (   0.0042711   0.0042711   0.0042711), wk =   0.0092593
        k(    2) = (  -0.0076880  -0.0076880   0.0367314), wk =   0.0277778
        k(    3) = (  -0.0196470  -0.0196470   0.0691917), wk =   0.0277778
        k(    4) = (   0.0401482   0.0401482  -0.0931098), wk =   0.0277778
        k(    5) = (   0.0281892   0.0281892  -0.0606495), wk =   0.0277778
        k(    6) = (   0.0162301   0.0162301  -0.0281892), wk =   0.0277778
        k(    7) = (  -0.0196470   0.0247723   0.0247723), wk =   0.0277778
        k(    8) = (  -0.0316061   0.0128133   0.0572326), wk =   0.0555556
        k(    9) = (   0.0281892   0.0726085  -0.1050688), wk =   0.0555556
        k(   10) = (   0.0162301   0.0606495  -0.0726085), wk =   0.0555556
        k(   11) = (   0.0042711   0.0486904  -0.0401482), wk =   0.0555556
        k(   12) = (  -0.0435651   0.0452736   0.0452736), wk =   0.0277778
        k(   13) = (   0.0162301   0.1050688  -0.1170279), wk =   0.0555556
        k(   14) = (   0.0042711   0.0931098  -0.0845676), wk =   0.0555556
        k(   15) = (  -0.0076880   0.0811507  -0.0521073), wk =   0.0555556
        k(   16) = (   0.0760254  -0.0572326  -0.0572326), wk =   0.0277778
        k(   17) = (   0.0640664  -0.0691917  -0.0247723), wk =   0.0555556
        k(   18) = (   0.0521073  -0.0367314  -0.0367314), wk =   0.0277778
        k(   19) = (   0.0128133   0.0128133   0.0128133), wk =   0.0092593
        k(   20) = (   0.0008542   0.0008542   0.0452736), wk =   0.0277778
        k(   21) = (   0.0606495   0.0606495  -0.1170279), wk =   0.0277778
        k(   22) = (   0.0486904   0.0486904  -0.0845676), wk =   0.0277778
        k(   23) = (  -0.0111048   0.0333145   0.0333145), wk =   0.0277778
        k(   24) = (   0.0486904   0.0931098  -0.1289869), wk =   0.0555556
        k(   25) = (   0.0367314   0.0811507  -0.0965266), wk =   0.0555556
        k(   26) = (   0.1084857  -0.0691917  -0.0691917), wk =   0.0277778
        k(   27) = (   0.0213555   0.0213555   0.0213555), wk =   0.0092593
        k(   28) = (   0.0811507   0.0811507  -0.1409460), wk =   0.0277778

                       cryst. coord.
        k(    1) = (   0.0833333   0.0833333   0.0833333), wk =   0.0092593
        k(    2) = (   0.0833333   0.0833333   0.2500000), wk =   0.0277778
        k(    3) = (   0.0833333   0.0833333   0.4166667), wk =   0.0277778
        k(    4) = (   0.0833333   0.0833333  -0.4166667), wk =   0.0277778
        k(    5) = (   0.0833333   0.0833333  -0.2500000), wk =   0.0277778
        k(    6) = (   0.0833333   0.0833333  -0.0833333), wk =   0.0277778
        k(    7) = (   0.0833333   0.2500000   0.2500000), wk =   0.0277778
        k(    8) = (   0.0833333   0.2500000   0.4166667), wk =   0.0555556
        k(    9) = (   0.0833333   0.2500000  -0.4166667), wk =   0.0555556
        k(   10) = (   0.0833333   0.2500000  -0.2500000), wk =   0.0555556
        k(   11) = (   0.0833333   0.2500000  -0.0833333), wk =   0.0555556
        k(   12) = (   0.0833333   0.4166667   0.4166667), wk =   0.0277778
        k(   13) = (   0.0833333   0.4166667  -0.4166667), wk =   0.0555556
        k(   14) = (   0.0833333   0.4166667  -0.2500000), wk =   0.0555556
        k(   15) = (   0.0833333   0.4166667  -0.0833333), wk =   0.0555556
        k(   16) = (   0.0833333  -0.4166667  -0.4166667), wk =   0.0277778
        k(   17) = (   0.0833333  -0.4166667  -0.2500000), wk =   0.0555556
        k(   18) = (   0.0833333  -0.2500000  -0.2500000), wk =   0.0277778
        k(   19) = (   0.2500000   0.2500000   0.2500000), wk =   0.0092593
        k(   20) = (   0.2500000   0.2500000   0.4166667), wk =   0.0277778
        k(   21) = (   0.2500000   0.2500000  -0.4166667), wk =   0.0277778
        k(   22) = (   0.2500000   0.2500000  -0.2500000), wk =   0.0277778
        k(   23) = (   0.2500000   0.4166667   0.4166667), wk =   0.0277778
        k(   24) = (   0.2500000   0.4166667  -0.4166667), wk =   0.0555556
        k(   25) = (   0.2500000   0.4166667  -0.2500000), wk =   0.0555556
        k(   26) = (   0.2500000  -0.4166667  -0.4166667), wk =   0.0277778
        k(   27) = (   0.4166667   0.4166667   0.4166667), wk =   0.0092593
        k(   28) = (   0.4166667   0.4166667  -0.4166667), wk =   0.0277778

     Dense  grid:   192893 G-vectors     FFT dimensions: ( 135, 135, 135)

     Dynamical RAM for                 wfc:       0.33 MB

     Dynamical RAM for     wfc (w. buffer):       1.96 MB

     Dynamical RAM for                 EXX:   18078.55 MB

     Dynamical RAM for           str. fact:       0.12 MB

     Dynamical RAM for           local pot:       0.00 MB

     Dynamical RAM for          nlocal pot:       0.09 MB

     Dynamical RAM for                qrad:       0.20 MB

     Dynamical RAM for          rho,v,vnew:       1.91 MB

     Dynamical RAM for               rhoin:       0.64 MB

     Dynamical RAM for            rho*nmix:       1.31 MB

     Dynamical RAM for           G-vectors:       0.17 MB

     Dynamical RAM for          h,s,v(r/c):       0.08 MB

     Dynamical RAM for          <psi|beta>:       0.02 MB

     Dynamical RAM for                 psi:       1.30 MB

     Dynamical RAM for                hpsi:       1.30 MB

     Dynamical RAM for      wfcinit/wfcrot:       0.75 MB

     Estimated static dynamical RAM per process >      17.66 GB

     Estimated max dynamical RAM per process >      17.67 GB

     Estimated total dynamical RAM >   16534.93 GB
     Generating pointlists ...
     new r_m :   0.4125 (alat units)  0.4125 (a.u.) for type    1
     new r_m :   0.4125 (alat units)  0.4125 (a.u.) for type    2
     new r_m :   0.4125 (alat units)  0.4125 (a.u.) for type    3

     Initial potential from superposition of free atoms

     starting charge   36.00000, renormalised to   44.00000
     Starting wfc are   26 randomized atomic wfcs +   38 random wfc

     total cpu time spent up to now is        3.4 secs

     Self-consistent Calculation

     iteration #  1     ecut=   300.00 Ry     beta= 0.30
     Davidson diagonalization with overlap
     ethr =  1.00E-02,  avg # of iterations =  6.1

     total cpu time spent up to now is        7.0 secs

     total energy              =    -543.56096991 Ry
     Harris-Foulkes estimate   =    -562.77669004 Ry
     estimated scf accuracy    <      48.29153097 Ry

     total magnetization       =    -0.00 Bohr mag/cell
     absolute magnetization    =     3.30 Bohr mag/cell

     iteration #  2     ecut=   300.00 Ry     beta= 0.30
     Davidson diagonalization with overlap
     ethr =  1.00E-02,  avg # of iterations =  3.0

     total cpu time spent up to now is        9.1 secs

     total energy              =    -549.66093074 Ry
     Harris-Foulkes estimate   =    -553.20814084 Ry
     estimated scf accuracy    <      11.46973951 Ry

     total magnetization       =     0.00 Bohr mag/cell
     absolute magnetization    =     5.02 Bohr mag/cell

     iteration #  3     ecut=   300.00 Ry     beta= 0.30
     Davidson diagonalization with overlap
     ethr =  1.00E-02,  avg # of iterations =  1.1

     total cpu time spent up to now is       10.6 secs

     total energy              =    -551.92995776 Ry
     Harris-Foulkes estimate   =    -552.35791915 Ry
     estimated scf accuracy    <       1.69951354 Ry

     total magnetization       =     0.00 Bohr mag/cell
     absolute magnetization    =     8.09 Bohr mag/cell

     iteration #  4     ecut=   300.00 Ry     beta= 0.30
     Davidson diagonalization with overlap
     ethr =  3.86E-03,  avg # of iterations =  1.0

     total cpu time spent up to now is       12.2 secs

     total energy              =    -552.08565553 Ry
     Harris-Foulkes estimate   =    -552.09054237 Ry
     estimated scf accuracy    <       0.16999205 Ry

     total magnetization       =    -0.00 Bohr mag/cell
     absolute magnetization    =     7.71 Bohr mag/cell

     iteration #  5     ecut=   300.00 Ry     beta= 0.30
     Davidson diagonalization with overlap
     ethr =  3.86E-04,  avg # of iterations =  1.2

     total cpu time spent up to now is       13.9 secs

     total energy              =    -552.12234432 Ry
     Harris-Foulkes estimate   =    -552.12853079 Ry
     estimated scf accuracy    <       0.08240494 Ry

     total magnetization       =    -0.00 Bohr mag/cell
     absolute magnetization    =     7.30 Bohr mag/cell

     iteration #  6     ecut=   300.00 Ry     beta= 0.30
     Davidson diagonalization with overlap
     ethr =  1.87E-04,  avg # of iterations =  1.1

     total cpu time spent up to now is       15.5 secs

     total energy              =    -552.13265435 Ry
     Harris-Foulkes estimate   =    -552.13263403 Ry
     estimated scf accuracy    <       0.00079187 Ry

     total magnetization       =     0.00 Bohr mag/cell
     absolute magnetization    =     7.32 Bohr mag/cell

     iteration #  7     ecut=   300.00 Ry     beta= 0.30
     Davidson diagonalization with overlap
     ethr =  1.80E-06,  avg # of iterations =  4.4

     total cpu time spent up to now is       17.7 secs

     total energy              =    -552.13281642 Ry
     Harris-Foulkes estimate   =    -552.13276730 Ry
     estimated scf accuracy    <       0.00039814 Ry

     total magnetization       =     0.00 Bohr mag/cell
     absolute magnetization    =     7.30 Bohr mag/cell

     iteration #  8     ecut=   300.00 Ry     beta= 0.30
     Davidson diagonalization with overlap
     ethr =  9.05E-07,  avg # of iterations =  1.0

     total cpu time spent up to now is       19.2 secs

     total energy              =    -552.13282933 Ry
     Harris-Foulkes estimate   =    -552.13284352 Ry
     estimated scf accuracy    <       0.00011296 Ry

     total magnetization       =     0.00 Bohr mag/cell
     absolute magnetization    =     7.30 Bohr mag/cell

     iteration #  9     ecut=   300.00 Ry     beta= 0.30
     Davidson diagonalization with overlap
     ethr =  2.57E-07,  avg # of iterations =  1.6

     total cpu time spent up to now is       20.8 secs

     total energy              =    -552.13286426 Ry
     Harris-Foulkes estimate   =    -552.13286612 Ry
     estimated scf accuracy    <       0.00003748 Ry

     total magnetization       =     0.00 Bohr mag/cell
     absolute magnetization    =     7.30 Bohr mag/cell

     iteration # 10     ecut=   300.00 Ry     beta= 0.30
     Davidson diagonalization with overlap
     ethr =  8.52E-08,  avg # of iterations =  1.0

     total cpu time spent up to now is       22.4 secs

     total energy              =    -552.13286080 Ry
     Harris-Foulkes estimate   =    -552.13286612 Ry
     estimated scf accuracy    <       0.00002211 Ry

     total magnetization       =    -0.00 Bohr mag/cell
     absolute magnetization    =     7.30 Bohr mag/cell

     iteration # 11     ecut=   300.00 Ry     beta= 0.30
     Davidson diagonalization with overlap
     ethr =  5.03E-08,  avg # of iterations =  1.0

     total cpu time spent up to now is       24.1 secs

     total energy              =    -552.13286347 Ry
     Harris-Foulkes estimate   =    -552.13286333 Ry
     estimated scf accuracy    <       0.00000042 Ry

     total magnetization       =     0.00 Bohr mag/cell
     absolute magnetization    =     7.30 Bohr mag/cell

     iteration # 12     ecut=   300.00 Ry     beta= 0.30
     Davidson diagonalization with overlap
     ethr =  9.51E-10,  avg # of iterations =  2.2

     total cpu time spent up to now is       25.8 secs

     total energy              =    -552.13286346 Ry
     Harris-Foulkes estimate   =    -552.13286356 Ry
     estimated scf accuracy    <       0.00000041 Ry

     total magnetization       =     0.00 Bohr mag/cell
     absolute magnetization    =     7.30 Bohr mag/cell

     iteration # 13     ecut=   300.00 Ry     beta= 0.30
     Davidson diagonalization with overlap
     ethr =  9.42E-10,  avg # of iterations =  1.0

     total cpu time spent up to now is       27.4 secs

     total energy              =    -552.13286353 Ry
     Harris-Foulkes estimate   =    -552.13286353 Ry
     estimated scf accuracy    <          4.2E-09 Ry

     total magnetization       =     0.00 Bohr mag/cell
     absolute magnetization    =     7.30 Bohr mag/cell

     iteration # 14     ecut=   300.00 Ry     beta= 0.30
     Davidson diagonalization with overlap
     ethr =  9.64E-12,  avg # of iterations =  2.0

     total cpu time spent up to now is       29.0 secs

     total energy              =    -552.13286353 Ry
     Harris-Foulkes estimate   =    -552.13286353 Ry
     estimated scf accuracy    <          9.1E-10 Ry

     total magnetization       =     0.00 Bohr mag/cell
     absolute magnetization    =     7.30 Bohr mag/cell

     iteration # 15     ecut=   300.00 Ry     beta= 0.30
     Davidson diagonalization with overlap
     ethr =  2.07E-12,  avg # of iterations =  2.0
 
     Magnetic moment per site:
     atom:    1    charge:    1.0857    magn:   -0.3454    constr:    0.0000
     atom:    2    charge:    1.0847    magn:    0.3452    constr:    0.0000
     atom:    3    charge:    0.3761    magn:    0.0000    constr:    0.0000
     atom:    4    charge:    0.3761    magn:    0.0000    constr:    0.0000

     total cpu time spent up to now is       30.6 secs

     End of self-consistent calculation

 ------ SPIN UP ------------


          k = 0.0043 0.0043 0.0043 ( 24182 PWs)   bands (ev):

   -74.2828 -69.0161 -40.8444 -40.7828 -40.7828 -35.7114 -35.7114 -35.6680
    -4.5931  -3.8696   6.3833  10.1363  10.1363  10.2714  10.9166  11.3475
    11.3475  12.6683  12.6683  13.1517  13.1517  13.9426  15.4521  15.4521
    16.1270  16.8963  16.8963  20.7413  21.8055  28.4018  30.1458  31.8036
    31.8036  35.0176  35.0176  35.3866  36.1115  37.9093  37.9093  37.9377
    39.4795  39.4795  40.4311  40.4311  40.8231  41.1446  41.1446  42.0711
    45.7481  48.1211  48.1211  49.5819  50.6317  50.6317  52.7710  52.7710
    56.3200  58.9775  58.9775  60.8788  61.5223  61.5223  62.1066  62.1066

     occupation numbers 
     1.0000   1.0000   1.0000   1.0000   1.0000   1.0000   1.0000   1.0000
     1.0000   1.0000   1.0000   1.0000   1.0000   1.0000   1.0000   1.0000
     1.0000   1.0000   1.0000   1.0000   1.0000   1.0000   0.0000   0.0000
     0.0000   0.0000   0.0000   0.0000   0.0000   0.0000   0.0000   0.0000
     0.0000   0.0000   0.0000   0.0000   0.0000   0.0000   0.0000   0.0000
     0.0000   0.0000   0.0000   0.0000   0.0000   0.0000   0.0000   0.0000
     0.0000   0.0000   0.0000   0.0000   0.0000   0.0000   0.0000   0.0000
     0.0000   0.0000   0.0000   0.0000   0.0000   0.0000   0.0000   0.0000

          k =-0.0077-0.0077 0.0367 ( 24098 PWs)   bands (ev):

   -74.2798 -69.0123 -40.8409 -40.8079 -40.7890 -35.7442 -35.7193 -35.6631
    -4.2676  -3.7144   6.9742   9.3462  10.1281  10.2405  10.7046  11.0995
    11.1859  11.8742  12.6337  12.7926  13.1205  14.4239  15.2785  15.7030
    16.3058  16.9689  17.7419  20.8879  23.0160  27.8747  28.6654  30.0176
    31.4508  31.7984  33.2641  34.0692  34.7776  37.5377  38.5973  39.3767
    40.1449  40.3959  41.5257  41.8296  42.4186  44.0218  44.1132  45.4722
    46.8602  47.3282  47.5734  48.7849  52.4911  53.1336  53.2706  53.9270
    56.1158  57.1433  57.7458  58.8440  61.0235  61.9645  62.5976  65.3212

     occupation numbers 
     1.0000   1.0000   1.0000   1.0000   1.0000   1.0000   1.0000   1.0000
     1.0000   1.0000   1.0000   1.0000   1.0000   1.0000   1.0000   1.0000
     1.0000   1.0000   1.0000   1.0000   1.0000   1.0000   0.0000   0.0000
     0.0000   0.0000   0.0000   0.0000   0.0000   0.0000   0.0000   0.0000
     0.0000   0.0000   0.0000   0.0000   0.0000   0.0000   0.0000   0.0000
     0.0000   0.0000   0.0000   0.0000   0.0000   0.0000   0.0000   0.0000
     0.0000   0.0000   0.0000   0.0000   0.0000   0.0000   0.0000   0.0000
     0.0000   0.0000   0.0000   0.0000   0.0000   0.0000   0.0000   0.0000

          k =-0.0196-0.0196 0.0692 ( 24065 PWs)   bands (ev):

   -74.2737 -69.0048 -40.8581 -40.8339 -40.8014 -35.8095 -35.7352 -35.6533
    -3.5813  -3.3182   7.8924   8.3334   8.9191   9.7730  10.1592  10.7187
    11.2822  12.2025  12.2754  12.7070  13.4226  14.2823  15.9366  16.2670
    16.3776  17.0275  19.5206  20.7595  24.3639  24.8805  25.9299  28.3068
    29.8439  30.3237  31.4764  32.3148  35.2806  38.0602  38.9225  39.7500
    40.3109  40.9459  43.0502  44.5315  45.6263  46.8719  47.2602  48.0681
    48.3410  51.1081  52.0709  52.5834  52.7175  52.9954  54.3421  54.6088
    56.2542  57.7740  58.0510  58.5703  59.4626  61.3449  61.9748  62.3407

     occupation numbers 
     1.0000   1.0000   1.0000   1.0000   1.0000   1.0000   1.0000   1.0000
     1.0000   1.0000   1.0000   1.0000   1.0000   1.0000   1.0000   1.0000
     1.0000   1.0000   1.0000   1.0000   1.0000   1.0000   0.0000   0.0000
     0.0000   0.0000   0.0000   0.0000   0.0000   0.0000   0.0000   0.0000
     0.0000   0.0000   0.0000   0.0000   0.0000   0.0000   0.0000   0.0000
     0.0000   0.0000   0.0000   0.0000   0.0000   0.0000   0.0000   0.0000
     0.0000   0.0000   0.0000   0.0000   0.0000   0.0000   0.0000   0.0000
     0.0000   0.0000   0.0000   0.0000   0.0000   0.0000   0.0000   0.0000

          k = 0.0401 0.0401-0.0931 ( 24089 PWs)   bands (ev):

   -74.2707 -69.0010 -40.8831 -40.8304 -40.8077 -35.8420 -35.7432 -35.6484
    -3.1638  -3.1230   7.6327   8.1400   8.4744   9.3384  10.0347  10.6640
    11.3740  12.0911  12.5232  13.1886  13.5689  14.0280  16.5392  16.5829
    16.7570  17.0273  20.3257  21.3403  21.6761  23.2273  26.7351  27.0094
    29.4601  30.6371  30.6518  31.3100  36.3667  37.8027  38.5584  39.6813
    40.9247  41.7284  44.8455  45.3028  47.1771  47.2865  47.5051  48.0822
    50.0959  51.4942  52.7703  54.3387  54.6156  54.9827  55.5900  57.2283
    57.3359  57.7904  59.2887  59.5979  59.7899  59.8434  60.7355  61.8322

     occupation numbers 
     1.0000   1.0000   1.0000   1.0000   1.0000   1.0000   1.0000   1.0000
     1.0000   1.0000   1.0000   1.0000   1.0000   1.0000   1.0000   1.0000
     1.0000   1.0000   1.0000   1.0000   1.0000   1.0000   0.0000   0.0000
     0.0000   0.0000   0.0000   0.0000   0.0000   0.0000   0.0000   0.0000
     0.0000   0.0000   0.0000   0.0000   0.0000   0.0000   0.0000   0.0000
     0.0000   0.0000   0.0000   0.0000   0.0000   0.0000   0.0000   0.0000
     0.0000   0.0000   0.0000   0.0000   0.0000   0.0000   0.0000   0.0000
     0.0000   0.0000   0.0000   0.0000   0.0000   0.0000   0.0000   0.0000

          k = 0.0282 0.0282-0.0606 ( 24092 PWs)   bands (ev):

   -74.2737 -69.0048 -40.8581 -40.8339 -40.8014 -35.8095 -35.7352 -35.6533
    -3.5793  -3.3217   8.0928   8.3652   8.8468   9.4132  10.1960  10.8237
    11.2165  12.1336  12.1494  12.9982  13.5483  14.2781  15.7423  16.2760
    16.7836  16.9641  19.0022  20.8745  24.4645  25.0058  25.9065  28.3143
    30.2856  30.6628  31.5520  31.5540  34.1744  38.5593  39.3743  39.6502
    40.4321  41.2974  43.8398  44.2660  44.6614  47.0054  47.3252  48.1152
    49.8387  51.0927  51.6105  51.7988  52.2425  53.1698  53.5431  53.6586
    55.0991  57.4836  58.6498  59.3911  61.1475  61.2658  62.1739  62.4325

     occupation numbers 
     1.0000   1.0000   1.0000   1.0000   1.0000   1.0000   1.0000   1.0000
     1.0000   1.0000   1.0000   1.0000   1.0000   1.0000   1.0000   1.0000
     1.0000   1.0000   1.0000   1.0000   1.0000   1.0000   0.0000   0.0000
     0.0000   0.0000   0.0000   0.0000   0.0000   0.0000   0.0000   0.0000
     0.0000   0.0000   0.0000   0.0000   0.0000   0.0000   0.0000   0.0000
     0.0000   0.0000   0.0000   0.0000   0.0000   0.0000   0.0000   0.0000
     0.0000   0.0000   0.0000   0.0000   0.0000   0.0000   0.0000   0.0000
     0.0000   0.0000   0.0000   0.0000   0.0000   0.0000   0.0000   0.0000

          k = 0.0162 0.0162-0.0282 ( 24126 PWs)   bands (ev):

   -74.2798 -69.0123 -40.8409 -40.8079 -40.7890 -35.7442 -35.7193 -35.6631
    -4.2885  -3.6897   6.9032   9.4822  10.2681  10.2725  10.6758  10.8857
    11.1736  11.7687  12.3936  13.0178  13.3927  14.3407  15.2157  15.7175
    16.6355  16.8956  17.3539  21.0884  22.8268  28.0874  28.9334  29.9206
    31.2724  31.7739  33.3619  33.9712  34.5123  37.9839  38.2695  38.7199
    40.0927  41.2021  41.6704  42.0370  42.4781  43.7706  43.9601  45.3982
    46.6889  47.0391  48.5720  50.2578  50.8228  51.7061  53.4401  53.9457
    55.8118  57.1492  57.6613  59.8502  61.5736  62.3764  63.1719  63.8436

     occupation numbers 
     1.0000   1.0000   1.0000   1.0000   1.0000   1.0000   1.0000   1.0000
     1.0000   1.0000   1.0000   1.0000   1.0000   1.0000   1.0000   1.0000
     1.0000   1.0000   1.0000   1.0000   1.0000   1.0000   0.0000   0.0000
     0.0000   0.0000   0.0000   0.0000   0.0000   0.0000   0.0000   0.0000
     0.0000   0.0000   0.0000   0.0000   0.0000   0.0000   0.0000   0.0000
     0.0000   0.0000   0.0000   0.0000   0.0000   0.0000   0.0000   0.0000
     0.0000   0.0000   0.0000   0.0000   0.0000   0.0000   0.0000   0.0000
     0.0000   0.0000   0.0000   0.0000   0.0000   0.0000   0.0000   0.0000

          k =-0.0196 0.0248 0.0248 ( 24131 PWs)   bands (ev):

   -74.2798 -69.0123 -40.8409 -40.8079 -40.7890 -35.7442 -35.7193 -35.6631
    -4.2357  -3.7525   7.1093   9.1998  10.2047  10.3138  10.4694  11.0519
    11.1393  11.8900  12.2342  12.9889  13.5927  14.4996  15.1650  15.7120
    16.6762  16.8414  17.5059  20.5235  23.4537  27.2336  29.1610  29.9608
    31.8740  31.8807  33.4030  33.4065  35.6403  36.8480  37.3956  39.2238
    40.0442  41.6554  41.8449  41.9011  42.2785  44.1124  44.7430  44.8049
    46.7765  47.3246  48.4791  48.7885  50.2172  53.0877  53.5562  54.8187
    54.8738  57.4268  58.8297  60.5677  61.2515  61.8615  62.7986  63.6119

     occupation numbers 
     1.0000   1.0000   1.0000   1.0000   1.0000   1.0000   1.0000   1.0000
     1.0000   1.0000   1.0000   1.0000   1.0000   1.0000   1.0000   1.0000
     1.0000   1.0000   1.0000   1.0000   1.0000   1.0000   0.0002   0.0000
     0.0000   0.0000   0.0000   0.0000   0.0000   0.0000   0.0000   0.0000
     0.0000   0.0000   0.0000   0.0000   0.0000   0.0000   0.0000   0.0000
     0.0000   0.0000   0.0000   0.0000   0.0000   0.0000   0.0000   0.0000
     0.0000   0.0000   0.0000   0.0000   0.0000   0.0000   0.0000   0.0000
     0.0000   0.0000   0.0000   0.0000   0.0000   0.0000   0.0000   0.0000

          k =-0.0316 0.0128 0.0572 ( 24104 PWs)   bands (ev):

   -74.2752 -69.0066 -40.8409 -40.8356 -40.8031 -35.7871 -35.7375 -35.6558
    -3.7230  -3.4709   7.9126   8.6213   9.3052   9.6753  10.3587  10.6508
    11.2491  11.8732  12.2622  12.9099  13.1352  14.8460  15.0523  16.2096
    16.6568  16.9162  19.0496  20.6056  25.0824  26.5952  26.6293  27.9369
    28.8946  29.4974  32.9654  34.0791  34.7676  36.2909  39.1240  39.9596
    40.2273  41.3241  43.0246  43.9883  45.2941  45.7494  47.5031  47.6649
    47.8800  48.6181  49.5480  51.1732  52.3370  52.8404  53.7173  55.4131
    56.1831  58.5932  58.8379  59.5603  60.2807  60.8925  62.4186  63.3169

     occupation numbers 
     1.0000   1.0000   1.0000   1.0000   1.0000   1.0000   1.0000   1.0000
     1.0000   1.0000   1.0000   1.0000   1.0000   1.0000   1.0000   1.0000
     1.0000   1.0000   1.0000   1.0000   1.0000   1.0000   0.4009   0.0000
     0.0000   0.0000   0.0000   0.0000   0.0000   0.0000   0.0000   0.0000
     0.0000   0.0000   0.0000   0.0000   0.0000   0.0000   0.0000   0.0000
     0.0000   0.0000   0.0000   0.0000   0.0000   0.0000   0.0000   0.0000
     0.0000   0.0000   0.0000   0.0000   0.0000   0.0000   0.0000   0.0000
     0.0000   0.0000   0.0000   0.0000   0.0000   0.0000   0.0000   0.0000

          k = 0.0282 0.0726-0.1051 ( 24089 PWs)   bands (ev):

   -74.2707 -69.0010 -40.8704 -40.8304 -40.8205 -35.8253 -35.7600 -35.6484
    -3.1983  -3.1030   8.0572   8.1847   8.7892   9.2362   9.9617  10.0117
    11.5615  11.9994  12.4055  12.9228  13.1330  14.6426  15.9264  16.5812
    16.8757  16.9913  20.5292  21.1316  23.1535  24.5377  25.7241  26.6043
    28.0160  29.0565  32.1882  32.8533  36.0546  36.7923  39.0603  39.7279
    40.9318  43.2300  44.0047  44.5189  46.4093  46.9015  48.0798  48.5147
    48.7446  51.9228  53.2562  54.2996  54.8491  55.6471  55.9177  56.1897
    56.6819  57.0591  58.6366  58.7917  59.0922  59.7485  61.2133  62.1527

     occupation numbers 
     1.0000   1.0000   1.0000   1.0000   1.0000   1.0000   1.0000   1.0000
     1.0000   1.0000   1.0000   1.0000   1.0000   1.0000   1.0000   1.0000
     1.0000   1.0000   1.0000   1.0000   1.0000   1.0000   0.0000   0.0000
     0.0000   0.0000   0.0000   0.0000   0.0000   0.0000   0.0000   0.0000
     0.0000   0.0000   0.0000   0.0000   0.0000   0.0000   0.0000   0.0000
     0.0000   0.0000   0.0000   0.0000   0.0000   0.0000   0.0000   0.0000
     0.0000   0.0000   0.0000   0.0000   0.0000   0.0000   0.0000   0.0000
     0.0000   0.0000   0.0000   0.0000   0.0000   0.0000   0.0000   0.0000

          k = 0.0162 0.0606-0.0726 ( 24105 PWs)   bands (ev):

   -74.2707 -69.0010 -40.8704 -40.8304 -40.8205 -35.8253 -35.7600 -35.6484
    -3.1752  -3.1275   7.9237   8.6471   8.7031   8.9855   9.9459  10.0010
    11.6253  11.9955  12.3489  12.9118  13.1073  14.6774  15.8335  16.5073
    16.8363  17.4044  20.0045  21.3642  23.4659  24.5583  25.7709  26.7046
    28.0139  28.3758  32.4606  32.8252  35.5023  37.8346  38.8363  39.1134
    41.2541  42.9392  45.0305  45.5840  46.2121  46.8083  47.6647  49.0237
    49.1169  49.6023  52.0839  53.3371  53.7258  55.1431  55.6863  56.8930
    57.9309  58.4152  59.0417  59.3792  60.2194  60.6976  61.9250  63.3339

     occupation numbers 
     1.0000   1.0000   1.0000   1.0000   1.0000   1.0000   1.0000   1.0000
     1.0000   1.0000   1.0000   1.0000   1.0000   1.0000   1.0000   1.0000
     1.0000   1.0000   1.0000   1.0000   1.0000   1.0000   0.0000   0.0000
     0.0000   0.0000   0.0000   0.0000   0.0000   0.0000   0.0000   0.0000
     0.0000   0.0000   0.0000   0.0000   0.0000   0.0000   0.0000   0.0000
     0.0000   0.0000   0.0000   0.0000   0.0000   0.0000   0.0000   0.0000
     0.0000   0.0000   0.0000   0.0000   0.0000   0.0000   0.0000   0.0000
     0.0000   0.0000   0.0000   0.0000   0.0000   0.0000   0.0000   0.0000

          k = 0.0043 0.0487-0.0401 ( 24114 PWs)   bands (ev):

   -74.2752 -69.0066 -40.8409 -40.8356 -40.8031 -35.7871 -35.7375 -35.6558
    -3.7673  -3.4230   7.8278   8.8954   9.1517   9.5989  10.3423  10.6285
    11.2023  12.0454  12.2457  12.9049  13.1370  14.8144  15.0415  16.1652
    16.7030  17.0835  18.6725  20.9142  24.8068  26.5660  26.7153  28.3261
    29.1161  29.4605  31.7680  34.5288  34.9051  36.1239  38.7120  40.4046
    41.1262  41.4458  43.3846  43.6644  45.0946  45.7874  47.0269  47.6849
    48.1143  48.2278  49.7751  51.6219  52.0193  52.4795  53.4215  54.9663
    55.5909  57.9057  58.3347  59.9033  60.8940  62.3954  62.5883  63.6189

     occupation numbers 
     1.0000   1.0000   1.0000   1.0000   1.0000   1.0000   1.0000   1.0000
     1.0000   1.0000   1.0000   1.0000   1.0000   1.0000   1.0000   1.0000
     1.0000   1.0000   1.0000   1.0000   1.0000   1.0000   0.5962   0.0000
     0.0000   0.0000   0.0000   0.0000   0.0000   0.0000   0.0000   0.0000
     0.0000   0.0000   0.0000   0.0000   0.0000   0.0000   0.0000   0.0000
     0.0000   0.0000   0.0000   0.0000   0.0000   0.0000   0.0000   0.0000
     0.0000   0.0000   0.0000   0.0000   0.0000   0.0000   0.0000   0.0000
     0.0000   0.0000   0.0000   0.0000   0.0000   0.0000   0.0000   0.0000

          k =-0.0436 0.0453 0.0453 ( 24078 PWs)   bands (ev):

   -74.2737 -69.0048 -40.8581 -40.8339 -40.8014 -35.8095 -35.7352 -35.6533
    -3.4825  -3.4226   8.0773   8.3204   8.7496   9.6732  10.1225  10.8685
    11.3462  11.9714  12.2745  13.0222  13.2796  14.3374  15.6475  16.2603
    17.0292  17.0971  18.7735  20.3350  24.7626  25.9313  26.3439  27.1534
    29.8597  30.2202  31.9800  32.8203  34.6261  36.7165  37.6997  39.2562
    41.7419  42.7750  43.9212  44.5245  45.1981  46.8162  47.2970  47.5072
    50.1380  50.4014  50.8302  51.4353  52.4418  53.0823  53.4203  53.4825
    57.3605  58.4702  59.4448  59.9894  60.9084  61.2488  61.7681  63.6095

     occupation numbers 
     1.0000   1.0000   1.0000   1.0000   1.0000   1.0000   1.0000   1.0000
     1.0000   1.0000   1.0000   1.0000   1.0000   1.0000   1.0000   1.0000
     1.0000   1.0000   1.0000   1.0000   1.0000   1.0000   0.0000   0.0000
     0.0000   0.0000   0.0000   0.0000   0.0000   0.0000   0.0000   0.0000
     0.0000   0.0000   0.0000   0.0000   0.0000   0.0000   0.0000   0.0000
     0.0000   0.0000   0.0000   0.0000   0.0000   0.0000   0.0000   0.0000
     0.0000   0.0000   0.0000   0.0000   0.0000   0.0000   0.0000   0.0000
     0.0000   0.0000   0.0000   0.0000   0.0000   0.0000   0.0000   0.0000

          k = 0.0162 0.1051-0.1170 ( 24093 PWs)   bands (ev):

   -74.2707 -69.0010 -40.8704 -40.8304 -40.8205 -35.8253 -35.7600 -35.6484
    -3.1749  -3.1269   7.7787   8.4522   8.7350   9.3407   9.9534  10.1223
    11.5209  11.8860  12.3494  13.0349  13.0945  14.6680  15.8053  16.6028
    16.9390  17.2457  19.7861  20.9605  23.7042  25.0371  25.7279  26.7740
    27.5921  29.0728  31.9439  33.8055  34.5416  37.7661  38.8181  39.6696
    39.9516  41.9420  45.2874  45.9753  46.8904  47.5360  48.1339  48.7177
    49.9420  50.3176  52.1557  52.3601  53.8184  55.6900  56.3471  56.7262
    57.0049  57.4884  57.9865  58.7661  59.4740  61.0936  61.4005  64.0611

     occupation numbers 
     1.0000   1.0000   1.0000   1.0000   1.0000   1.0000   1.0000   1.0000
     1.0000   1.0000   1.0000   1.0000   1.0000   1.0000   1.0000   1.0000
     1.0000   1.0000   1.0000   1.0000   1.0000   1.0000   0.0000   0.0000
     0.0000   0.0000   0.0000   0.0000   0.0000   0.0000   0.0000   0.0000
     0.0000   0.0000   0.0000   0.0000   0.0000   0.0000   0.0000   0.0000
     0.0000   0.0000   0.0000   0.0000   0.0000   0.0000   0.0000   0.0000
     0.0000   0.0000   0.0000   0.0000   0.0000   0.0000   0.0000   0.0000
     0.0000   0.0000   0.0000   0.0000   0.0000   0.0000   0.0000   0.0000

          k = 0.0043 0.0931-0.0846 ( 24087 PWs)   bands (ev):

   -74.2692 -68.9991 -40.8533 -40.8533 -40.8287 -35.8028 -35.8028 -35.6459
    -2.9968  -2.9968   8.5069   8.6057   8.8557   8.9155   8.9661   9.4911
    11.8109  11.9511  12.2191  12.9064  13.0842  15.4565  15.5516  16.3419
    17.0529  17.1392  21.8763  22.1453  22.9484  23.9331  24.2988  24.6960
    28.1173  28.8291  32.9200  33.5772  35.6029  36.5532  38.6198  38.7924
    42.3446  42.7222  45.4991  45.6236  46.8419  47.5401  48.4203  49.0444
    49.6532  49.8949  52.7342  53.2140  53.3390  54.2571  56.5366  57.4557
    58.2996  59.5048  60.0908  60.7757  61.7103  62.2458  62.4488  62.7618

     occupation numbers 
     1.0000   1.0000   1.0000   1.0000   1.0000   1.0000   1.0000   1.0000
     1.0000   1.0000   1.0000   1.0000   1.0000   1.0000   1.0000   1.0000
     1.0000   1.0000   1.0000   1.0000   1.0000   0.0000   0.0000   0.0000
     0.0000   0.0000   0.0000   0.0000   0.0000   0.0000   0.0000   0.0000
     0.0000   0.0000   0.0000   0.0000   0.0000   0.0000   0.0000   0.0000
     0.0000   0.0000   0.0000   0.0000   0.0000   0.0000   0.0000   0.0000
     0.0000   0.0000   0.0000   0.0000   0.0000   0.0000   0.0000   0.0000
     0.0000   0.0000   0.0000   0.0000   0.0000   0.0000   0.0000   0.0000

          k =-0.0077 0.0812-0.0521 ( 24087 PWs)   bands (ev):

   -74.2707 -69.0010 -40.8704 -40.8304 -40.8205 -35.8253 -35.7600 -35.6484
    -3.1923  -3.1098   8.0435   8.3919   8.7416   9.0642   9.9548   9.9846
    11.5946  12.0406  12.4138  12.8435  13.1438  14.6577  15.9001  16.5066
    16.8483  17.1723  20.4561  21.3476  23.1940  24.3554  25.7385  26.6114
    28.0954  28.6937  32.2269  32.9348  35.7283  37.2519  39.2713  39.3950
    42.0633  42.3514  44.1035  45.2982  46.2431  46.5655  47.9770  48.3297
    48.7597  50.4749  53.4699  53.7434  54.5035  55.4418  55.9911  56.3390
    57.1061  58.2724  58.9434  59.3460  59.7028  60.0703  60.6728  62.5228

     occupation numbers 
     1.0000   1.0000   1.0000   1.0000   1.0000   1.0000   1.0000   1.0000
     1.0000   1.0000   1.0000   1.0000   1.0000   1.0000   1.0000   1.0000
     1.0000   1.0000   1.0000   1.0000   1.0000   1.0000   0.0000   0.0000
     0.0000   0.0000   0.0000   0.0000   0.0000   0.0000   0.0000   0.0000
     0.0000   0.0000   0.0000   0.0000   0.0000   0.0000   0.0000   0.0000
     0.0000   0.0000   0.0000   0.0000   0.0000   0.0000   0.0000   0.0000
     0.0000   0.0000   0.0000   0.0000   0.0000   0.0000   0.0000   0.0000
     0.0000   0.0000   0.0000   0.0000   0.0000   0.0000   0.0000   0.0000

          k = 0.0760-0.0572-0.0572 ( 24107 PWs)   bands (ev):

   -74.2707 -69.0010 -40.8831 -40.8304 -40.8077 -35.8420 -35.7432 -35.6484
    -3.2081  -3.0763   7.2370   8.3621   8.4619   9.9209  10.0019  10.4526
    11.7779  12.0909  12.3205  13.0202  13.1258  14.1231  16.5345  16.5951
    17.2232  17.3999  18.5273  20.8766  22.6901  24.6112  26.4971  27.1417
    28.7396  29.7687  31.4514  32.8039  34.3308  36.2853  38.0900  41.0663
    42.2932  43.0424  44.7865  45.3519  46.5815  47.0711  47.4712  47.8928
    49.1499  50.2964  53.0928  54.7331  55.5892  56.4270  56.9684  57.1923
    57.4595  57.8916  58.2993  58.3528  58.5397  60.2391  60.6056  61.0165

     occupation numbers 
     1.0000   1.0000   1.0000   1.0000   1.0000   1.0000   1.0000   1.0000
     1.0000   1.0000   1.0000   1.0000   1.0000   1.0000   1.0000   1.0000
     1.0000   1.0000   1.0000   1.0000   1.0000   1.0000   0.0000   0.0000
     0.0000   0.0000   0.0000   0.0000   0.0000   0.0000   0.0000   0.0000
     0.0000   0.0000   0.0000   0.0000   0.0000   0.0000   0.0000   0.0000
     0.0000   0.0000   0.0000   0.0000   0.0000   0.0000   0.0000   0.0000
     0.0000   0.0000   0.0000   0.0000   0.0000   0.0000   0.0000   0.0000
     0.0000   0.0000   0.0000   0.0000   0.0000   0.0000   0.0000   0.0000

          k = 0.0641-0.0692-0.0248 ( 24088 PWs)   bands (ev):

   -74.2707 -69.0010 -40.8704 -40.8304 -40.8205 -35.8253 -35.7600 -35.6484
    -3.1537  -3.1488   7.8144   8.6121   8.6865   9.1856   9.9460  10.0568
    11.6039  11.9015  12.3340  13.0104  13.0686  14.6833  15.7823  16.5748
    16.8681  17.4471  19.7110  21.1285  23.7131  24.9041  25.7725  26.8298
    27.5869  28.6665  32.3470  33.1952  34.8947  38.2760  38.6274  39.3007
    40.3047  42.2085  45.6177  46.5295  46.8125  47.2066  47.5764  48.4621
    49.8574  50.5150  50.6597  52.3315  53.8086  55.1620  55.9768  56.9344
    58.0350  58.1655  58.3515  59.1787  60.1143  61.1233  62.7004  63.3093

     occupation numbers 
     1.0000   1.0000   1.0000   1.0000   1.0000   1.0000   1.0000   1.0000
     1.0000   1.0000   1.0000   1.0000   1.0000   1.0000   1.0000   1.0000
     1.0000   1.0000   1.0000   1.0000   1.0000   1.0000   0.0000   0.0000
     0.0000   0.0000   0.0000   0.0000   0.0000   0.0000   0.0000   0.0000
     0.0000   0.0000   0.0000   0.0000   0.0000   0.0000   0.0000   0.0000
     0.0000   0.0000   0.0000   0.0000   0.0000   0.0000   0.0000   0.0000
     0.0000   0.0000   0.0000   0.0000   0.0000   0.0000   0.0000   0.0000
     0.0000   0.0000   0.0000   0.0000   0.0000   0.0000   0.0000   0.0000

          k = 0.0521-0.0367-0.0367 ( 24086 PWs)   bands (ev):

   -74.2737 -69.0048 -40.8581 -40.8339 -40.8014 -35.8095 -35.7352 -35.6533
    -3.5434  -3.3604   8.2570   8.3421   8.6892   9.3946  10.1751  10.8808
    11.2523  12.0266  12.1740  13.1139  13.4858  14.3081  15.6387  16.2715
    17.0012  17.1269  18.5953  20.6209  24.7210  25.5085  25.9271  27.9372
    30.0362  30.8538  31.7230  31.8232  33.8691  37.8408  38.5409  39.6649
    40.4883  43.3454  43.6671  44.3252  45.2470  46.3907  47.3395  47.7909
    49.9448  51.1824  51.2297  51.6382  51.9838  52.6412  53.0693  54.0603
    55.1503  58.2237  58.6933  60.3338  60.9510  61.0238  62.7728  63.4215

     occupation numbers 
     1.0000   1.0000   1.0000   1.0000   1.0000   1.0000   1.0000   1.0000
     1.0000   1.0000   1.0000   1.0000   1.0000   1.0000   1.0000   1.0000
     1.0000   1.0000   1.0000   1.0000   1.0000   1.0000   0.0000   0.0000
     0.0000   0.0000   0.0000   0.0000   0.0000   0.0000   0.0000   0.0000
     0.0000   0.0000   0.0000   0.0000   0.0000   0.0000   0.0000   0.0000
     0.0000   0.0000   0.0000   0.0000   0.0000   0.0000   0.0000   0.0000
     0.0000   0.0000   0.0000   0.0000   0.0000   0.0000   0.0000   0.0000
     0.0000   0.0000   0.0000   0.0000   0.0000   0.0000   0.0000   0.0000

          k = 0.0128 0.0128 0.0128 ( 24143 PWs)   bands (ev):

   -74.2828 -69.0161 -40.8444 -40.7828 -40.7828 -35.7114 -35.7114 -35.6680
    -4.5057  -3.9771   6.7336   9.3402  10.1746  10.1746  11.2071  11.3539
    11.3539  12.3073  12.3073  13.5414  13.5414  14.3006  15.4335  15.4335
    16.4959  16.8315  16.8315  19.6572  22.8714  26.8172  31.9471  32.1513
    32.1513  34.5601  34.5601  35.5679  36.1037  37.3641  37.3641  37.7325
    38.7227  38.7227  39.3109  41.3977  41.7537  41.7537  42.4601  42.4601
    47.3586  47.3586  48.2406  48.4546  48.4546  50.2135  54.6409  54.6409
    55.3495  57.9984  57.9984  59.9715  62.3618  62.6911  62.6911  63.3029

     occupation numbers 
     1.0000   1.0000   1.0000   1.0000   1.0000   1.0000   1.0000   1.0000
     1.0000   1.0000   1.0000   1.0000   1.0000   1.0000   1.0000   1.0000
     1.0000   1.0000   1.0000   1.0000   1.0000   1.0000   0.0000   0.0000
     0.0000   0.0000   0.0000   0.0000   0.0000   0.0000   0.0000   0.0000
     0.0000   0.0000   0.0000   0.0000   0.0000   0.0000   0.0000   0.0000
     0.0000   0.0000   0.0000   0.0000   0.0000   0.0000   0.0000   0.0000
     0.0000   0.0000   0.0000   0.0000   0.0000   0.0000   0.0000   0.0000
     0.0000   0.0000   0.0000   0.0000   0.0000   0.0000   0.0000   0.0000

          k = 0.0009 0.0009 0.0453 ( 24137 PWs)   bands (ev):

   -74.2798 -69.0123 -40.8409 -40.8079 -40.7890 -35.7442 -35.7193 -35.6631
    -4.1776  -3.8183   7.3130   8.8336  10.1183  10.2540  10.5614  11.1701
    11.2510  12.1124  12.6064  12.6106  13.1518  14.6031  15.3240  15.6846
    16.0776  16.9894  18.3129  20.0880  23.8518  26.6628  28.7933  30.6890
    31.0747  31.9525  33.1686  34.8976  35.6931  36.6742  37.0493  39.6949
    40.0441  40.4052  41.9798  42.3441  42.5598  44.1826  45.0600  45.2276
    45.5650  46.0026  47.0474  50.7320  50.8466  54.2223  54.6895  55.5961
    55.6825  56.5522  57.3838  59.2919  61.0375  61.9647  62.1331  62.7620

     occupation numbers 
     1.0000   1.0000   1.0000   1.0000   1.0000   1.0000   1.0000   1.0000
     1.0000   1.0000   1.0000   1.0000   1.0000   1.0000   1.0000   1.0000
     1.0000   1.0000   1.0000   1.0000   1.0000   1.0000   0.0000   0.0000
     0.0000   0.0000   0.0000   0.0000   0.0000   0.0000   0.0000   0.0000
     0.0000   0.0000   0.0000   0.0000   0.0000   0.0000   0.0000   0.0000
     0.0000   0.0000   0.0000   0.0000   0.0000   0.0000   0.0000   0.0000
     0.0000   0.0000   0.0000   0.0000   0.0000   0.0000   0.0000   0.0000
     0.0000   0.0000   0.0000   0.0000   0.0000   0.0000   0.0000   0.0000

          k = 0.0606 0.0606-0.1170 ( 24083 PWs)   bands (ev):

   -74.2737 -69.0048 -40.8581 -40.8339 -40.8014 -35.8095 -35.7352 -35.6533
    -3.5495  -3.3513   7.8106   8.2910   8.9289  10.1090  10.1178  10.6154
    11.3721  12.2543  12.3216  12.5825  13.2006  14.3095  15.9761  16.2569
    16.2952  17.1211  19.8493  20.2318  24.4796  25.2924  25.9681  27.9464
    29.4916  30.0790  31.7021  33.1672  36.4099  36.7058  38.0827  38.7874
    40.7478  41.4708  43.6349  45.1957  45.4456  46.4722  46.8018  48.2248
    48.2254  50.6309  51.9240  52.6354  52.9955  53.2362  54.6421  55.7404
    57.0055  57.3969  58.0332  58.9543  59.2596  61.4667  61.7823  62.1645

     occupation numbers 
     1.0000   1.0000   1.0000   1.0000   1.0000   1.0000   1.0000   1.0000
     1.0000   1.0000   1.0000   1.0000   1.0000   1.0000   1.0000   1.0000
     1.0000   1.0000   1.0000   1.0000   1.0000   1.0000   0.0000   0.0000
     0.0000   0.0000   0.0000   0.0000   0.0000   0.0000   0.0000   0.0000
     0.0000   0.0000   0.0000   0.0000   0.0000   0.0000   0.0000   0.0000
     0.0000   0.0000   0.0000   0.0000   0.0000   0.0000   0.0000   0.0000
     0.0000   0.0000   0.0000   0.0000   0.0000   0.0000   0.0000   0.0000
     0.0000   0.0000   0.0000   0.0000   0.0000   0.0000   0.0000   0.0000

          k = 0.0487 0.0487-0.0846 ( 24088 PWs)   bands (ev):

   -74.2707 -69.0010 -40.8831 -40.8304 -40.8077 -35.8420 -35.7432 -35.6484
    -3.1916  -3.0940   7.3966   8.2529   8.5103   9.6134   9.9736  10.6013
    11.5614  12.0910  12.4353  13.0941  13.3632  14.0804  16.5633  16.5903
    16.9647  17.1267  19.3420  21.1821  22.1887  23.9808  26.6435  27.0680
    29.0315  30.1014  31.1197  32.0876  35.0701  37.3143  38.3365  40.9970
    41.1042  41.9386  45.1183  45.9216  46.2656  46.8566  47.2663  48.7950
    50.0423  50.5559  53.0837  53.7056  54.8107  55.7846  56.1411  56.8139
    57.9661  58.5579  58.6899  59.0730  59.3631  59.8231  60.4730  60.9130

     occupation numbers 
     1.0000   1.0000   1.0000   1.0000   1.0000   1.0000   1.0000   1.0000
     1.0000   1.0000   1.0000   1.0000   1.0000   1.0000   1.0000   1.0000
     1.0000   1.0000   1.0000   1.0000   1.0000   1.0000   0.0000   0.0000
     0.0000   0.0000   0.0000   0.0000   0.0000   0.0000   0.0000   0.0000
     0.0000   0.0000   0.0000   0.0000   0.0000   0.0000   0.0000   0.0000
     0.0000   0.0000   0.0000   0.0000   0.0000   0.0000   0.0000   0.0000
     0.0000   0.0000   0.0000   0.0000   0.0000   0.0000   0.0000   0.0000
     0.0000   0.0000   0.0000   0.0000   0.0000   0.0000   0.0000   0.0000

          k =-0.0111 0.0333 0.0333 ( 24147 PWs)   bands (ev):

   -74.2798 -69.0123 -40.8409 -40.8079 -40.7890 -35.7442 -35.7193 -35.6631
    -4.1206  -3.8814   7.5517   8.5729  10.1667  10.3305  10.4101  11.1187
    11.1880  12.0890  12.2270  12.7990  13.6063  14.7068  15.1569  15.6901
    16.4082  16.8648  18.1893  19.7918  24.3629  26.0891  29.2844  29.8169
    32.0372  32.6422  33.3284  33.3807  36.1968  36.7644  37.0703  38.1268
    40.5991  40.7913  42.2412  42.3159  42.4996  43.8697  45.4942  45.8905
    46.1524  46.3127  46.8188  48.6370  51.2436  53.8573  54.0294  55.3203
    56.2443  56.9119  59.5148  60.0554  60.6236  61.2708  61.5833  63.3900

     occupation numbers 
     1.0000   1.0000   1.0000   1.0000   1.0000   1.0000   1.0000   1.0000
     1.0000   1.0000   1.0000   1.0000   1.0000   1.0000   1.0000   1.0000
     1.0000   1.0000   1.0000   1.0000   1.0000   1.0000   0.0003   0.0000
     0.0000   0.0000   0.0000   0.0000   0.0000   0.0000   0.0000   0.0000
     0.0000   0.0000   0.0000   0.0000   0.0000   0.0000   0.0000   0.0000
     0.0000   0.0000   0.0000   0.0000   0.0000   0.0000   0.0000   0.0000
     0.0000   0.0000   0.0000   0.0000   0.0000   0.0000   0.0000   0.0000
     0.0000   0.0000   0.0000   0.0000   0.0000   0.0000   0.0000   0.0000

          k = 0.0487 0.0931-0.1290 ( 24108 PWs)   bands (ev):

   -74.2752 -69.0066 -40.8409 -40.8356 -40.8031 -35.7871 -35.7375 -35.6558
    -3.6450  -3.5524   8.0609   8.3635   9.4075   9.7216  10.3725  10.6707
    11.3444  11.6718  12.3166  12.8073  13.1939  14.8173  15.1274  16.2815
    16.5061  16.8691  19.5038  20.1848  25.4636  26.3622  26.6405  27.5191
    28.9429  29.5919  33.6877  33.8193  35.2124  36.1633  38.8755  39.0629
    40.2803  41.3333  42.9814  44.1341  44.9293  45.9878  47.5015  47.5976
    48.1623  48.1990  50.6713  50.8461  52.3016  52.3306  54.7144  56.6632
    57.1342  57.6214  58.6428  59.1712  60.2760  60.5034  62.3148  63.3646

     occupation numbers 
     1.0000   1.0000   1.0000   1.0000   1.0000   1.0000   1.0000   1.0000
     1.0000   1.0000   1.0000   1.0000   1.0000   1.0000   1.0000   1.0000
     1.0000   1.0000   1.0000   1.0000   1.0000   1.0000   0.0027   0.0000
     0.0000   0.0000   0.0000   0.0000   0.0000   0.0000   0.0000   0.0000
     0.0000   0.0000   0.0000   0.0000   0.0000   0.0000   0.0000   0.0000
     0.0000   0.0000   0.0000   0.0000   0.0000   0.0000   0.0000   0.0000
     0.0000   0.0000   0.0000   0.0000   0.0000   0.0000   0.0000   0.0000
     0.0000   0.0000   0.0000   0.0000   0.0000   0.0000   0.0000   0.0000

          k = 0.0367 0.0812-0.0965 ( 24099 PWs)   bands (ev):

   -74.2707 -69.0010 -40.8704 -40.8304 -40.8205 -35.8253 -35.7600 -35.6484
    -3.1919  -3.1092   7.8605   8.2992   8.7824   9.3527   9.9608  10.0893
    11.5187  11.9278  12.3673  13.0395  13.0909  14.6472  15.8825  16.6120
    16.9111  17.0471  20.1323  20.9923  23.4330  24.8540  25.7211  26.6634
    27.8394  29.2191  31.9804  33.1221  35.8124  36.8672  38.8112  39.7308
    40.1612  43.1039  44.3898  44.7766  46.8470  47.2321  47.8874  48.8139
    49.4495  52.3485  53.2485  53.3222  53.5102  55.2298  55.9230  56.6110
    56.8698  58.0196  58.0541  58.5265  58.9269  59.4755  60.9176  63.9783

     occupation numbers 
     1.0000   1.0000   1.0000   1.0000   1.0000   1.0000   1.0000   1.0000
     1.0000   1.0000   1.0000   1.0000   1.0000   1.0000   1.0000   1.0000
     1.0000   1.0000   1.0000   1.0000   1.0000   1.0000   0.0000   0.0000
     0.0000   0.0000   0.0000   0.0000   0.0000   0.0000   0.0000   0.0000
     0.0000   0.0000   0.0000   0.0000   0.0000   0.0000   0.0000   0.0000
     0.0000   0.0000   0.0000   0.0000   0.0000   0.0000   0.0000   0.0000
     0.0000   0.0000   0.0000   0.0000   0.0000   0.0000   0.0000   0.0000
     0.0000   0.0000   0.0000   0.0000   0.0000   0.0000   0.0000   0.0000

          k = 0.1085-0.0692-0.0692 ( 24112 PWs)   bands (ev):

   -74.2737 -69.0048 -40.8581 -40.8339 -40.8014 -35.8095 -35.7352 -35.6533
    -3.4920  -3.4117   7.8797   8.2845   8.8727  10.0178  10.0926  10.7401
    11.4005  12.0340  12.3814  12.8044  13.1080  14.3349  15.7669  16.2543
    16.6467  17.1541  19.4016  20.1500  24.6386  25.9449  26.1691  27.2356
    29.7026  29.8736  31.9272  33.5891  35.8664  36.1618  37.2786  38.9217
    41.9956  42.0491  43.4545  44.2826  45.7442  47.0271  47.0458  47.6986
    49.1460  50.4103  51.4326  51.8935  52.8274  53.1603  53.6937  54.7181
    58.0625  58.7158  59.1420  59.1447  59.8199  61.6190  62.3897  62.4543

     occupation numbers 
     1.0000   1.0000   1.0000   1.0000   1.0000   1.0000   1.0000   1.0000
     1.0000   1.0000   1.0000   1.0000   1.0000   1.0000   1.0000   1.0000
     1.0000   1.0000   1.0000   1.0000   1.0000   1.0000   0.0000   0.0000
     0.0000   0.0000   0.0000   0.0000   0.0000   0.0000   0.0000   0.0000
     0.0000   0.0000   0.0000   0.0000   0.0000   0.0000   0.0000   0.0000
     0.0000   0.0000   0.0000   0.0000   0.0000   0.0000   0.0000   0.0000
     0.0000   0.0000   0.0000   0.0000   0.0000   0.0000   0.0000   0.0000
     0.0000   0.0000   0.0000   0.0000   0.0000   0.0000   0.0000   0.0000

          k = 0.0214 0.0214 0.0214 ( 24125 PWs)   bands (ev):

   -74.2828 -69.0161 -40.8444 -40.7828 -40.7828 -35.7114 -35.7114 -35.6681
    -4.3488  -4.1538   7.3573   8.3824  10.2164  10.2164  11.3010  11.3628
    11.3628  12.0831  12.0831  13.7962  13.7962  14.5489  15.4104  15.4104
    16.7635  16.7635  17.2642  18.5683  24.0368  25.3608  32.7750  32.7750
    33.7631  33.7631  33.8446  35.5547  35.9525  36.4406  37.2686  37.2686
    38.1075  38.1075  39.4180  40.4213  43.4200  43.4200  43.7325  43.7325
    46.2390  46.2390  46.5468  46.5468  50.7488  51.1195  54.6352  56.0609
    56.0609  56.6758  57.1034  57.1034  63.0560  63.8110  63.8110  64.2540

     occupation numbers 
     1.0000   1.0000   1.0000   1.0000   1.0000   1.0000   1.0000   1.0000
     1.0000   1.0000   1.0000   1.0000   1.0000   1.0000   1.0000   1.0000
     1.0000   1.0000   1.0000   1.0000   1.0000   1.0000   0.0000   0.0000
     0.0000   0.0000   0.0000   0.0000   0.0000   0.0000   0.0000   0.0000
     0.0000   0.0000   0.0000   0.0000   0.0000   0.0000   0.0000   0.0000
     0.0000   0.0000   0.0000   0.0000   0.0000   0.0000   0.0000   0.0000
     0.0000   0.0000   0.0000   0.0000   0.0000   0.0000   0.0000   0.0000
     0.0000   0.0000   0.0000   0.0000   0.0000   0.0000   0.0000   0.0000

          k = 0.0812 0.0812-0.1409 ( 24141 PWs)   bands (ev):

   -74.2798 -69.0123 -40.8409 -40.8079 -40.7890 -35.7442 -35.7193 -35.6631
    -4.0394  -3.9665   7.8471   8.2033  10.1778  10.2979  10.4217  11.1377
    11.2577  12.1839  12.3700  12.6496  13.4265  14.7308  15.2536  15.6775
    16.1384  16.9392  18.8549  19.2862  24.8971  25.4641  29.0288  30.2881
    31.7348  32.0913  33.1781  35.1014  36.0036  36.1773  36.8879  38.5979
    39.9181  40.6739  42.3150  43.1256  43.4296  43.6480  44.7423  45.1595
    45.5919  45.9845  46.6924  49.3030  52.7951  53.5333  54.6940  55.5015
    56.0145  57.6548  57.7285  59.3350  61.2683  61.3923  61.5093  62.3325

     occupation numbers 
     1.0000   1.0000   1.0000   1.0000   1.0000   1.0000   1.0000   1.0000
     1.0000   1.0000   1.0000   1.0000   1.0000   1.0000   1.0000   1.0000
     1.0000   1.0000   1.0000   1.0000   1.0000   1.0000   0.0000   0.0000
     0.0000   0.0000   0.0000   0.0000   0.0000   0.0000   0.0000   0.0000
     0.0000   0.0000   0.0000   0.0000   0.0000   0.0000   0.0000   0.0000
     0.0000   0.0000   0.0000   0.0000   0.0000   0.0000   0.0000   0.0000
     0.0000   0.0000   0.0000   0.0000   0.0000   0.0000   0.0000   0.0000
     0.0000   0.0000   0.0000   0.0000   0.0000   0.0000   0.0000   0.0000

 ------ SPIN DOWN ----------


          k = 0.0043 0.0043 0.0043 ( 24182 PWs)   bands (ev):

   -74.2828 -69.0161 -40.8444 -40.7828 -40.7828 -35.7114 -35.7114 -35.6680
    -4.5931  -3.8696   6.3833  10.1363  10.1363  10.2714  10.9166  11.3475
    11.3475  12.6683  12.6683  13.1517  13.1517  13.9426  15.4521  15.4521
    16.1270  16.8963  16.8963  20.7413  21.8055  28.4018  30.1458  31.8036
    31.8036  35.0176  35.0176  35.3866  36.1115  37.9093  37.9093  37.9377
    39.4795  39.4795  40.4311  40.4311  40.8231  41.1446  41.1446  42.0711
    45.7481  48.1211  48.1211  49.5819  50.6317  50.6317  52.7710  52.7710
    56.3200  58.9775  58.9775  60.8788  61.5223  61.5223  62.1066  62.1066

     occupation numbers 
     1.0000   1.0000   1.0000   1.0000   1.0000   1.0000   1.0000   1.0000
     1.0000   1.0000   1.0000   1.0000   1.0000   1.0000   1.0000   1.0000
     1.0000   1.0000   1.0000   1.0000   1.0000   1.0000   0.0000   0.0000
     0.0000   0.0000   0.0000   0.0000   0.0000   0.0000   0.0000   0.0000
     0.0000   0.0000   0.0000   0.0000   0.0000   0.0000   0.0000   0.0000
     0.0000   0.0000   0.0000   0.0000   0.0000   0.0000   0.0000   0.0000
     0.0000   0.0000   0.0000   0.0000   0.0000   0.0000   0.0000   0.0000
     0.0000   0.0000   0.0000   0.0000   0.0000   0.0000   0.0000   0.0000

          k =-0.0077-0.0077 0.0367 ( 24098 PWs)   bands (ev):

   -74.2798 -69.0123 -40.8409 -40.8079 -40.7890 -35.7442 -35.7193 -35.6631
    -4.2676  -3.7144   6.9742   9.3462  10.1281  10.2405  10.7046  11.0995
    11.1859  11.8742  12.6337  12.7926  13.1205  14.4239  15.2785  15.7030
    16.3058  16.9689  17.7419  20.8879  23.0160  27.8747  28.6654  30.0176
    31.4508  31.7984  33.2641  34.0692  34.7776  37.5377  38.5973  39.3767
    40.1449  40.3959  41.5257  41.8296  42.4186  44.0218  44.1132  45.4722
    46.8602  47.3282  47.5734  48.7849  52.4911  53.1336  53.2706  53.9270
    56.1158  57.1433  57.7458  58.8440  61.0235  61.9645  62.5976  65.3212

     occupation numbers 
     1.0000   1.0000   1.0000   1.0000   1.0000   1.0000   1.0000   1.0000
     1.0000   1.0000   1.0000   1.0000   1.0000   1.0000   1.0000   1.0000
     1.0000   1.0000   1.0000   1.0000   1.0000   1.0000   0.0000   0.0000
     0.0000   0.0000   0.0000   0.0000   0.0000   0.0000   0.0000   0.0000
     0.0000   0.0000   0.0000   0.0000   0.0000   0.0000   0.0000   0.0000
     0.0000   0.0000   0.0000   0.0000   0.0000   0.0000   0.0000   0.0000
     0.0000   0.0000   0.0000   0.0000   0.0000   0.0000   0.0000   0.0000
     0.0000   0.0000   0.0000   0.0000   0.0000   0.0000   0.0000   0.0000

          k =-0.0196-0.0196 0.0692 ( 24065 PWs)   bands (ev):

   -74.2737 -69.0048 -40.8581 -40.8339 -40.8014 -35.8095 -35.7352 -35.6533
    -3.5813  -3.3182   7.8924   8.3334   8.9191   9.7730  10.1592  10.7187
    11.2822  12.2025  12.2754  12.7070  13.4226  14.2823  15.9366  16.2670
    16.3776  17.0275  19.5206  20.7595  24.3639  24.8805  25.9299  28.3068
    29.8439  30.3238  31.4764  32.3148  35.2806  38.0602  38.9225  39.7500
    40.3109  40.9459  43.0502  44.5315  45.6263  46.8719  47.2602  48.0681
    48.3410  51.1081  52.0709  52.5834  52.7175  52.9954  54.3421  54.6088
    56.2542  57.7740  58.0510  58.5703  59.4626  61.3449  61.9748  62.3407

     occupation numbers 
     1.0000   1.0000   1.0000   1.0000   1.0000   1.0000   1.0000   1.0000
     1.0000   1.0000   1.0000   1.0000   1.0000   1.0000   1.0000   1.0000
     1.0000   1.0000   1.0000   1.0000   1.0000   1.0000   0.0000   0.0000
     0.0000   0.0000   0.0000   0.0000   0.0000   0.0000   0.0000   0.0000
     0.0000   0.0000   0.0000   0.0000   0.0000   0.0000   0.0000   0.0000
     0.0000   0.0000   0.0000   0.0000   0.0000   0.0000   0.0000   0.0000
     0.0000   0.0000   0.0000   0.0000   0.0000   0.0000   0.0000   0.0000
     0.0000   0.0000   0.0000   0.0000   0.0000   0.0000   0.0000   0.0000

          k = 0.0401 0.0401-0.0931 ( 24089 PWs)   bands (ev):

   -74.2707 -69.0010 -40.8831 -40.8304 -40.8077 -35.8420 -35.7432 -35.6484
    -3.1638  -3.1230   7.6327   8.1400   8.4744   9.3384  10.0347  10.6640
    11.3740  12.0911  12.5232  13.1886  13.5689  14.0280  16.5392  16.5829
    16.7570  17.0273  20.3257  21.3403  21.6761  23.2273  26.7351  27.0094
    29.4601  30.6371  30.6518  31.3100  36.3667  37.8027  38.5584  39.6813
    40.9247  41.7284  44.8455  45.3028  47.1771  47.2865  47.5051  48.0822
    50.0959  51.4942  52.7703  54.3387  54.6156  54.9827  55.5900  57.2283
    57.3359  57.7904  59.2887  59.5979  59.7899  59.8434  60.7355  61.8322

     occupation numbers 
     1.0000   1.0000   1.0000   1.0000   1.0000   1.0000   1.0000   1.0000
     1.0000   1.0000   1.0000   1.0000   1.0000   1.0000   1.0000   1.0000
     1.0000   1.0000   1.0000   1.0000   1.0000   1.0000   0.0000   0.0000
     0.0000   0.0000   0.0000   0.0000   0.0000   0.0000   0.0000   0.0000
     0.0000   0.0000   0.0000   0.0000   0.0000   0.0000   0.0000   0.0000
     0.0000   0.0000   0.0000   0.0000   0.0000   0.0000   0.0000   0.0000
     0.0000   0.0000   0.0000   0.0000   0.0000   0.0000   0.0000   0.0000
     0.0000   0.0000   0.0000   0.0000   0.0000   0.0000   0.0000   0.0000

          k = 0.0282 0.0282-0.0606 ( 24092 PWs)   bands (ev):

   -74.2737 -69.0048 -40.8581 -40.8339 -40.8014 -35.8095 -35.7352 -35.6533
    -3.5793  -3.3217   8.0928   8.3652   8.8468   9.4132  10.1960  10.8237
    11.2165  12.1336  12.1494  12.9982  13.5483  14.2781  15.7423  16.2760
    16.7836  16.9641  19.0022  20.8745  24.4645  25.0058  25.9065  28.3143
    30.2856  30.6628  31.5520  31.5540  34.1744  38.5593  39.3743  39.6502
    40.4321  41.2974  43.8398  44.2660  44.6614  47.0054  47.3252  48.1152
    49.8387  51.0927  51.6105  51.7988  52.2425  53.1698  53.5431  53.6586
    55.0991  57.4836  58.6498  59.3911  61.1475  61.2658  62.1739  62.4325

     occupation numbers 
     1.0000   1.0000   1.0000   1.0000   1.0000   1.0000   1.0000   1.0000
     1.0000   1.0000   1.0000   1.0000   1.0000   1.0000   1.0000   1.0000
     1.0000   1.0000   1.0000   1.0000   1.0000   1.0000   0.0000   0.0000
     0.0000   0.0000   0.0000   0.0000   0.0000   0.0000   0.0000   0.0000
     0.0000   0.0000   0.0000   0.0000   0.0000   0.0000   0.0000   0.0000
     0.0000   0.0000   0.0000   0.0000   0.0000   0.0000   0.0000   0.0000
     0.0000   0.0000   0.0000   0.0000   0.0000   0.0000   0.0000   0.0000
     0.0000   0.0000   0.0000   0.0000   0.0000   0.0000   0.0000   0.0000

          k = 0.0162 0.0162-0.0282 ( 24126 PWs)   bands (ev):

   -74.2798 -69.0123 -40.8409 -40.8079 -40.7890 -35.7442 -35.7193 -35.6631
    -4.2885  -3.6897   6.9032   9.4822  10.2681  10.2725  10.6758  10.8857
    11.1736  11.7687  12.3936  13.0178  13.3927  14.3407  15.2157  15.7175
    16.6355  16.8956  17.3538  21.0884  22.8268  28.0874  28.9334  29.9206
    31.2724  31.7739  33.3619  33.9712  34.5123  37.9839  38.2695  38.7199
    40.0927  41.2021  41.6704  42.0370  42.4781  43.7706  43.9601  45.3982
    46.6889  47.0391  48.5720  50.2578  50.8228  51.7061  53.4401  53.9457
    55.8118  57.1492  57.6613  59.8502  61.5736  62.3764  63.1719  63.8436

     occupation numbers 
     1.0000   1.0000   1.0000   1.0000   1.0000   1.0000   1.0000   1.0000
     1.0000   1.0000   1.0000   1.0000   1.0000   1.0000   1.0000   1.0000
     1.0000   1.0000   1.0000   1.0000   1.0000   1.0000   0.0000   0.0000
     0.0000   0.0000   0.0000   0.0000   0.0000   0.0000   0.0000   0.0000
     0.0000   0.0000   0.0000   0.0000   0.0000   0.0000   0.0000   0.0000
     0.0000   0.0000   0.0000   0.0000   0.0000   0.0000   0.0000   0.0000
     0.0000   0.0000   0.0000   0.0000   0.0000   0.0000   0.0000   0.0000
     0.0000   0.0000   0.0000   0.0000   0.0000   0.0000   0.0000   0.0000

          k =-0.0196 0.0248 0.0248 ( 24131 PWs)   bands (ev):

   -74.2798 -69.0123 -40.8409 -40.8079 -40.7890 -35.7442 -35.7193 -35.6631
    -4.2357  -3.7525   7.1093   9.1998  10.2047  10.3138  10.4694  11.0519
    11.1393  11.8900  12.2342  12.9889  13.5927  14.4996  15.1650  15.7120
    16.6762  16.8414  17.5059  20.5235  23.4537  27.2336  29.1610  29.9608
    31.8740  31.8807  33.4030  33.4065  35.6403  36.8480  37.3956  39.2238
    40.0442  41.6554  41.8449  41.9011  42.2785  44.1124  44.7430  44.8049
    46.7765  47.3246  48.4791  48.7885  50.2172  53.0877  53.5562  54.8187
    54.8738  57.4268  58.8297  60.5677  61.2515  61.8615  62.7986  63.6119

     occupation numbers 
     1.0000   1.0000   1.0000   1.0000   1.0000   1.0000   1.0000   1.0000
     1.0000   1.0000   1.0000   1.0000   1.0000   1.0000   1.0000   1.0000
     1.0000   1.0000   1.0000   1.0000   1.0000   1.0000   0.0002   0.0000
[...]
    11.8109  11.9511  12.2191  12.9064  13.0842  15.4565  15.5516  16.3419
    17.0529  17.1392  21.8763  22.1453  22.9484  23.9331  24.2988  24.6960
    28.1173  28.8291  32.9200  33.5772  35.6029  36.5532  38.6198  38.7924
    42.3446  42.7222  45.4991  45.6236  46.8419  47.5401  48.4203  49.0445
    49.6532  49.8949  52.7342  53.2140  53.3390  54.2571  56.5366  57.4557
    58.2996  59.5048  60.0908  60.7757  61.7103  62.2458  62.4488  62.7618

     occupation numbers 
     1.0000   1.0000   1.0000   1.0000   1.0000   1.0000   1.0000   1.0000
     1.0000   1.0000   1.0000   1.0000   1.0000   1.0000   1.0000   1.0000
     1.0000   1.0000   1.0000   1.0000   1.0000   0.0000   0.0000   0.0000
     0.0000   0.0000   0.0000   0.0000   0.0000   0.0000   0.0000   0.0000
     0.0000   0.0000   0.0000   0.0000   0.0000   0.0000   0.0000   0.0000
     0.0000   0.0000   0.0000   0.0000   0.0000   0.0000   0.0000   0.0000
     0.0000   0.0000   0.0000   0.0000   0.0000   0.0000   0.0000   0.0000
     0.0000   0.0000   0.0000   0.0000   0.0000   0.0000   0.0000   0.0000

          k =-0.0077 0.0812-0.0521 ( 24087 PWs)   bands (ev):

   -74.2707 -69.0010 -40.8704 -40.8304 -40.8205 -35.8253 -35.7600 -35.6484
    -3.1923  -3.1098   8.0435   8.3919   8.7416   9.0642   9.9548   9.9846
    11.5946  12.0406  12.4138  12.8435  13.1438  14.6577  15.9001  16.5066
    16.8483  17.1723  20.4561  21.3476  23.1940  24.3554  25.7385  26.6114
    28.0954  28.6937  32.2269  32.9348  35.7283  37.2519  39.2713  39.3950
    42.0633  42.3514  44.1035  45.2982  46.2431  46.5655  47.9770  48.3297
    48.7597  50.4749  53.4699  53.7434  54.5035  55.4418  55.9911  56.3390
    57.1061  58.2724  58.9434  59.3460  59.7028  60.0703  60.6728  62.5228

     occupation numbers 
     1.0000   1.0000   1.0000   1.0000   1.0000   1.0000   1.0000   1.0000
     1.0000   1.0000   1.0000   1.0000   1.0000   1.0000   1.0000   1.0000
     1.0000   1.0000   1.0000   1.0000   1.0000   1.0000   0.0000   0.0000
     0.0000   0.0000   0.0000   0.0000   0.0000   0.0000   0.0000   0.0000
     0.0000   0.0000   0.0000   0.0000   0.0000   0.0000   0.0000   0.0000
     0.0000   0.0000   0.0000   0.0000   0.0000   0.0000   0.0000   0.0000
     0.0000   0.0000   0.0000   0.0000   0.0000   0.0000   0.0000   0.0000
     0.0000   0.0000   0.0000   0.0000   0.0000   0.0000   0.0000   0.0000

          k = 0.0760-0.0572-0.0572 ( 24107 PWs)   bands (ev):

   -74.2707 -69.0010 -40.8831 -40.8304 -40.8077 -35.8420 -35.7432 -35.6484
    -3.2081  -3.0763   7.2370   8.3621   8.4619   9.9209  10.0019  10.4526
    11.7779  12.0909  12.3205  13.0202  13.1258  14.1231  16.5344  16.5951
    17.2232  17.3999  18.5273  20.8766  22.6901  24.6112  26.4971  27.1417
    28.7396  29.7687  31.4514  32.8039  34.3308  36.2853  38.0900  41.0663
    42.2932  43.0424  44.7865  45.3519  46.5815  47.0711  47.4712  47.8928
    49.1499  50.2964  53.0928  54.7331  55.5892  56.4270  56.9684  57.1923
    57.4595  57.8916  58.2993  58.3528  58.5397  60.2391  60.6056  61.0165

     occupation numbers 
     1.0000   1.0000   1.0000   1.0000   1.0000   1.0000   1.0000   1.0000
     1.0000   1.0000   1.0000   1.0000   1.0000   1.0000   1.0000   1.0000
     1.0000   1.0000   1.0000   1.0000   1.0000   1.0000   0.0000   0.0000
     0.0000   0.0000   0.0000   0.0000   0.0000   0.0000   0.0000   0.0000
     0.0000   0.0000   0.0000   0.0000   0.0000   0.0000   0.0000   0.0000
     0.0000   0.0000   0.0000   0.0000   0.0000   0.0000   0.0000   0.0000
     0.0000   0.0000   0.0000   0.0000   0.0000   0.0000   0.0000   0.0000
     0.0000   0.0000   0.0000   0.0000   0.0000   0.0000   0.0000   0.0000

          k = 0.0641-0.0692-0.0248 ( 24088 PWs)   bands (ev):

   -74.2707 -69.0010 -40.8704 -40.8304 -40.8205 -35.8253 -35.7600 -35.6484
    -3.1537  -3.1488   7.8144   8.6121   8.6865   9.1856   9.9460  10.0568
    11.6039  11.9015  12.3340  13.0103  13.0686  14.6833  15.7823  16.5748
    16.8681  17.4471  19.7110  21.1285  23.7131  24.9041  25.7725  26.8298
    27.5869  28.6665  32.3470  33.1952  34.8947  38.2760  38.6274  39.3007
    40.3047  42.2085  45.6177  46.5295  46.8125  47.2066  47.5764  48.4621
    49.8574  50.5150  50.6597  52.3315  53.8086  55.1620  55.9768  56.9344
    58.0350  58.1655  58.3515  59.1787  60.1143  61.1233  62.7004  63.3093

     occupation numbers 
     1.0000   1.0000   1.0000   1.0000   1.0000   1.0000   1.0000   1.0000
     1.0000   1.0000   1.0000   1.0000   1.0000   1.0000   1.0000   1.0000
     1.0000   1.0000   1.0000   1.0000   1.0000   1.0000   0.0000   0.0000
     0.0000   0.0000   0.0000   0.0000   0.0000   0.0000   0.0000   0.0000
     0.0000   0.0000   0.0000   0.0000   0.0000   0.0000   0.0000   0.0000
     0.0000   0.0000   0.0000   0.0000   0.0000   0.0000   0.0000   0.0000
     0.0000   0.0000   0.0000   0.0000   0.0000   0.0000   0.0000   0.0000
     0.0000   0.0000   0.0000   0.0000   0.0000   0.0000   0.0000   0.0000

          k = 0.0521-0.0367-0.0367 ( 24086 PWs)   bands (ev):

   -74.2737 -69.0048 -40.8581 -40.8339 -40.8014 -35.8095 -35.7352 -35.6533
    -3.5434  -3.3604   8.2570   8.3421   8.6892   9.3946  10.1751  10.8808
    11.2523  12.0266  12.1740  13.1139  13.4858  14.3081  15.6387  16.2715
    17.0012  17.1269  18.5953  20.6209  24.7210  25.5085  25.9271  27.9372
    30.0362  30.8538  31.7230  31.8232  33.8691  37.8408  38.5409  39.6649
    40.4883  43.3454  43.6671  44.3252  45.2470  46.3907  47.3395  47.7909
    49.9448  51.1824  51.2297  51.6382  51.9838  52.6412  53.0693  54.0603
    55.1503  58.2237  58.6933  60.3338  60.9510  61.0238  62.7728  63.4215

     occupation numbers 
     1.0000   1.0000   1.0000   1.0000   1.0000   1.0000   1.0000   1.0000
     1.0000   1.0000   1.0000   1.0000   1.0000   1.0000   1.0000   1.0000
     1.0000   1.0000   1.0000   1.0000   1.0000   1.0000   0.0000   0.0000
     0.0000   0.0000   0.0000   0.0000   0.0000   0.0000   0.0000   0.0000
     0.0000   0.0000   0.0000   0.0000   0.0000   0.0000   0.0000   0.0000
     0.0000   0.0000   0.0000   0.0000   0.0000   0.0000   0.0000   0.0000
     0.0000   0.0000   0.0000   0.0000   0.0000   0.0000   0.0000   0.0000
     0.0000   0.0000   0.0000   0.0000   0.0000   0.0000   0.0000   0.0000

          k = 0.0128 0.0128 0.0128 ( 24143 PWs)   bands (ev):

   -74.2828 -69.0161 -40.8444 -40.7828 -40.7828 -35.7114 -35.7114 -35.6680
    -4.5057  -3.9771   6.7336   9.3402  10.1746  10.1746  11.2071  11.3539
    11.3539  12.3073  12.3073  13.5414  13.5414  14.3006  15.4335  15.4335
    16.4959  16.8315  16.8315  19.6572  22.8714  26.8172  31.9471  32.1513
    32.1513  34.5601  34.5601  35.5679  36.1037  37.3641  37.3641  37.7325
    38.7227  38.7227  39.3109  41.3977  41.7537  41.7537  42.4601  42.4601
    47.3586  47.3586  48.2406  48.4546  48.4546  50.2135  54.6409  54.6409
    55.3495  57.9984  57.9984  59.9715  62.3618  62.6911  62.6911  63.3029

     occupation numbers 
     1.0000   1.0000   1.0000   1.0000   1.0000   1.0000   1.0000   1.0000
     1.0000   1.0000   1.0000   1.0000   1.0000   1.0000   1.0000   1.0000
     1.0000   1.0000   1.0000   1.0000   1.0000   1.0000   0.0000   0.0000
     0.0000   0.0000   0.0000   0.0000   0.0000   0.0000   0.0000   0.0000
     0.0000   0.0000   0.0000   0.0000   0.0000   0.0000   0.0000   0.0000
     0.0000   0.0000   0.0000   0.0000   0.0000   0.0000   0.0000   0.0000
     0.0000   0.0000   0.0000   0.0000   0.0000   0.0000   0.0000   0.0000
     0.0000   0.0000   0.0000   0.0000   0.0000   0.0000   0.0000   0.0000

          k = 0.0009 0.0009 0.0453 ( 24137 PWs)   bands (ev):

   -74.2798 -69.0123 -40.8409 -40.8079 -40.7890 -35.7442 -35.7193 -35.6631
    -4.1776  -3.8183   7.3130   8.8336  10.1183  10.2540  10.5614  11.1701
    11.2510  12.1124  12.6064  12.6106  13.1518  14.6031  15.3240  15.6846
    16.0776  16.9894  18.3129  20.0880  23.8518  26.6628  28.7933  30.6890
    31.0747  31.9525  33.1686  34.8976  35.6931  36.6742  37.0493  39.6949
    40.0441  40.4052  41.9798  42.3441  42.5598  44.1826  45.0600  45.2276
    45.5650  46.0026  47.0474  50.7320  50.8466  54.2223  54.6895  55.5961
    55.6825  56.5522  57.3838  59.2919  61.0375  61.9647  62.1331  62.7620

     occupation numbers 
     1.0000   1.0000   1.0000   1.0000   1.0000   1.0000   1.0000   1.0000
     1.0000   1.0000   1.0000   1.0000   1.0000   1.0000   1.0000   1.0000
     1.0000   1.0000   1.0000   1.0000   1.0000   1.0000   0.0000   0.0000
     0.0000   0.0000   0.0000   0.0000   0.0000   0.0000   0.0000   0.0000
     0.0000   0.0000   0.0000   0.0000   0.0000   0.0000   0.0000   0.0000
     0.0000   0.0000   0.0000   0.0000   0.0000   0.0000   0.0000   0.0000
     0.0000   0.0000   0.0000   0.0000   0.0000   0.0000   0.0000   0.0000
     0.0000   0.0000   0.0000   0.0000   0.0000   0.0000   0.0000   0.0000

          k = 0.0606 0.0606-0.1170 ( 24083 PWs)   bands (ev):

   -74.2737 -69.0048 -40.8581 -40.8339 -40.8014 -35.8095 -35.7352 -35.6533
    -3.5495  -3.3513   7.8106   8.2910   8.9289  10.1090  10.1178  10.6154
    11.3721  12.2543  12.3216  12.5825  13.2006  14.3095  15.9761  16.2569
    16.2952  17.1211  19.8493  20.2318  24.4796  25.2924  25.9681  27.9464
    29.4916  30.0790  31.7021  33.1672  36.4099  36.7058  38.0827  38.7874
    40.7478  41.4708  43.6349  45.1957  45.4456  46.4722  46.8018  48.2248
    48.2254  50.6309  51.9240  52.6354  52.9955  53.2362  54.6421  55.7404
    57.0055  57.3969  58.0332  58.9543  59.2596  61.4667  61.7823  62.1645

     occupation numbers 
     1.0000   1.0000   1.0000   1.0000   1.0000   1.0000   1.0000   1.0000
     1.0000   1.0000   1.0000   1.0000   1.0000   1.0000   1.0000   1.0000
     1.0000   1.0000   1.0000   1.0000   1.0000   1.0000   0.0000   0.0000
     0.0000   0.0000   0.0000   0.0000   0.0000   0.0000   0.0000   0.0000
     0.0000   0.0000   0.0000   0.0000   0.0000   0.0000   0.0000   0.0000
     0.0000   0.0000   0.0000   0.0000   0.0000   0.0000   0.0000   0.0000
     0.0000   0.0000   0.0000   0.0000   0.0000   0.0000   0.0000   0.0000
     0.0000   0.0000   0.0000   0.0000   0.0000   0.0000   0.0000   0.0000

          k = 0.0487 0.0487-0.0846 ( 24088 PWs)   bands (ev):

   -74.2707 -69.0010 -40.8831 -40.8304 -40.8077 -35.8420 -35.7432 -35.6484
    -3.1916  -3.0940   7.3966   8.2529   8.5103   9.6134   9.9736  10.6014
    11.5614  12.0910  12.4353  13.0941  13.3632  14.0804  16.5633  16.5903
    16.9647  17.1267  19.3420  21.1821  22.1887  23.9808  26.6435  27.0680
    29.0315  30.1014  31.1197  32.0876  35.0701  37.3143  38.3365  40.9970
    41.1042  41.9386  45.1183  45.9216  46.2656  46.8566  47.2663  48.7950
    50.0423  50.5559  53.0837  53.7056  54.8107  55.7846  56.1411  56.8139
    57.9661  58.5579  58.6899  59.0730  59.3631  59.8231  60.4730  60.9130

     occupation numbers 
     1.0000   1.0000   1.0000   1.0000   1.0000   1.0000   1.0000   1.0000
     1.0000   1.0000   1.0000   1.0000   1.0000   1.0000   1.0000   1.0000
     1.0000   1.0000   1.0000   1.0000   1.0000   1.0000   0.0000   0.0000
     0.0000   0.0000   0.0000   0.0000   0.0000   0.0000   0.0000   0.0000
     0.0000   0.0000   0.0000   0.0000   0.0000   0.0000   0.0000   0.0000
     0.0000   0.0000   0.0000   0.0000   0.0000   0.0000   0.0000   0.0000
     0.0000   0.0000   0.0000   0.0000   0.0000   0.0000   0.0000   0.0000
     0.0000   0.0000   0.0000   0.0000   0.0000   0.0000   0.0000   0.0000

          k =-0.0111 0.0333 0.0333 ( 24147 PWs)   bands (ev):

   -74.2798 -69.0123 -40.8409 -40.8079 -40.7890 -35.7442 -35.7193 -35.6631
    -4.1206  -3.8814   7.5517   8.5729  10.1667  10.3305  10.4101  11.1187
    11.1880  12.0890  12.2270  12.7990  13.6063  14.7068  15.1569  15.6901
    16.4082  16.8648  18.1893  19.7918  24.3629  26.0891  29.2844  29.8169
    32.0372  32.6422  33.3284  33.3807  36.1968  36.7644  37.0703  38.1268
    40.5991  40.7913  42.2412  42.3159  42.4996  43.8697  45.4942  45.8905
    46.1524  46.3127  46.8188  48.6370  51.2436  53.8573  54.0294  55.3203
    56.2443  56.9119  59.5148  60.0554  60.6236  61.2708  61.5833  63.3900

     occupation numbers 
     1.0000   1.0000   1.0000   1.0000   1.0000   1.0000   1.0000   1.0000
     1.0000   1.0000   1.0000   1.0000   1.0000   1.0000   1.0000   1.0000
     1.0000   1.0000   1.0000   1.0000   1.0000   1.0000   0.0003   0.0000
     0.0000   0.0000   0.0000   0.0000   0.0000   0.0000   0.0000   0.0000
     0.0000   0.0000   0.0000   0.0000   0.0000   0.0000   0.0000   0.0000
     0.0000   0.0000   0.0000   0.0000   0.0000   0.0000   0.0000   0.0000
     0.0000   0.0000   0.0000   0.0000   0.0000   0.0000   0.0000   0.0000
     0.0000   0.0000   0.0000   0.0000   0.0000   0.0000   0.0000   0.0000

          k = 0.0487 0.0931-0.1290 ( 24108 PWs)   bands (ev):

   -74.2752 -69.0066 -40.8409 -40.8356 -40.8031 -35.7871 -35.7375 -35.6558
    -3.6450  -3.5524   8.0609   8.3635   9.4075   9.7216  10.3725  10.6707
    11.3444  11.6718  12.3166  12.8073  13.1939  14.8173  15.1274  16.2815
    16.5061  16.8691  19.5038  20.1848  25.4636  26.3622  26.6405  27.5191
    28.9429  29.5919  33.6877  33.8193  35.2124  36.1633  38.8755  39.0629
    40.2803  41.3333  42.9814  44.1341  44.9293  45.9878  47.5015  47.5976
    48.1623  48.1990  50.6713  50.8461  52.3016  52.3306  54.7144  56.6632
    57.1342  57.6214  58.6428  59.1712  60.2760  60.5034  62.3148  63.3646

     occupation numbers 
     1.0000   1.0000   1.0000   1.0000   1.0000   1.0000   1.0000   1.0000
     1.0000   1.0000   1.0000   1.0000   1.0000   1.0000   1.0000   1.0000
     1.0000   1.0000   1.0000   1.0000   1.0000   1.0000   0.0027   0.0000
     0.0000   0.0000   0.0000   0.0000   0.0000   0.0000   0.0000   0.0000
     0.0000   0.0000   0.0000   0.0000   0.0000   0.0000   0.0000   0.0000
     0.0000   0.0000   0.0000   0.0000   0.0000   0.0000   0.0000   0.0000
     0.0000   0.0000   0.0000   0.0000   0.0000   0.0000   0.0000   0.0000
     0.0000   0.0000   0.0000   0.0000   0.0000   0.0000   0.0000   0.0000

          k = 0.0367 0.0812-0.0965 ( 24099 PWs)   bands (ev):

   -74.2707 -69.0010 -40.8704 -40.8304 -40.8205 -35.8253 -35.7600 -35.6484
    -3.1919  -3.1092   7.8605   8.2992   8.7824   9.3527   9.9608  10.0893
    11.5187  11.9278  12.3673  13.0395  13.0909  14.6472  15.8825  16.6120
    16.9111  17.0471  20.1323  20.9923  23.4330  24.8540  25.7211  26.6634
    27.8393  29.2191  31.9804  33.1221  35.8124  36.8672  38.8112  39.7308
    40.1612  43.1039  44.3898  44.7766  46.8470  47.2321  47.8874  48.8139
    49.4495  52.3485  53.2485  53.3222  53.5102  55.2298  55.9230  56.6110
    56.8698  58.0196  58.0541  58.5265  58.9269  59.4755  60.9176  63.9783

     occupation numbers 
     1.0000   1.0000   1.0000   1.0000   1.0000   1.0000   1.0000   1.0000
     1.0000   1.0000   1.0000   1.0000   1.0000   1.0000   1.0000   1.0000
     1.0000   1.0000   1.0000   1.0000   1.0000   1.0000   0.0000   0.0000
     0.0000   0.0000   0.0000   0.0000   0.0000   0.0000   0.0000   0.0000
     0.0000   0.0000   0.0000   0.0000   0.0000   0.0000   0.0000   0.0000
     0.0000   0.0000   0.0000   0.0000   0.0000   0.0000   0.0000   0.0000
     0.0000   0.0000   0.0000   0.0000   0.0000   0.0000   0.0000   0.0000
     0.0000   0.0000   0.0000   0.0000   0.0000   0.0000   0.0000   0.0000

          k = 0.1085-0.0692-0.0692 ( 24112 PWs)   bands (ev):

   -74.2737 -69.0048 -40.8581 -40.8339 -40.8014 -35.8095 -35.7352 -35.6533
    -3.4920  -3.4117   7.8797   8.2845   8.8727  10.0178  10.0926  10.7401
    11.4005  12.0340  12.3814  12.8044  13.1080  14.3349  15.7669  16.2543
    16.6467  17.1541  19.4016  20.1500  24.6386  25.9449  26.1691  27.2356
    29.7026  29.8736  31.9272  33.5891  35.8664  36.1618  37.2786  38.9217
    41.9956  42.0491  43.4545  44.2826  45.7442  47.0271  47.0458  47.6986
    49.1460  50.4103  51.4326  51.8935  52.8274  53.1603  53.6937  54.7181
    58.0625  58.7158  59.1420  59.1447  59.8199  61.6190  62.3897  62.4543

     occupation numbers 
     1.0000   1.0000   1.0000   1.0000   1.0000   1.0000   1.0000   1.0000
     1.0000   1.0000   1.0000   1.0000   1.0000   1.0000   1.0000   1.0000
     1.0000   1.0000   1.0000   1.0000   1.0000   1.0000   0.0000   0.0000
     0.0000   0.0000   0.0000   0.0000   0.0000   0.0000   0.0000   0.0000
     0.0000   0.0000   0.0000   0.0000   0.0000   0.0000   0.0000   0.0000
     0.0000   0.0000   0.0000   0.0000   0.0000   0.0000   0.0000   0.0000
     0.0000   0.0000   0.0000   0.0000   0.0000   0.0000   0.0000   0.0000
     0.0000   0.0000   0.0000   0.0000   0.0000   0.0000   0.0000   0.0000

          k = 0.0214 0.0214 0.0214 ( 24125 PWs)   bands (ev):

   -74.2828 -69.0161 -40.8444 -40.7828 -40.7828 -35.7114 -35.7114 -35.6681
    -4.3488  -4.1538   7.3573   8.3824  10.2164  10.2164  11.3010  11.3628
    11.3628  12.0831  12.0831  13.7962  13.7962  14.5489  15.4104  15.4104
    16.7635  16.7635  17.2642  18.5683  24.0368  25.3608  32.7750  32.7750
    33.7631  33.7631  33.8446  35.5547  35.9525  36.4406  37.2686  37.2686
    38.1075  38.1075  39.4180  40.4213  43.4200  43.4200  43.7325  43.7325
    46.2390  46.2390  46.5468  46.5468  50.7488  51.1195  54.6352  56.0609
    56.0609  56.6758  57.1034  57.1034  63.0560  63.8110  63.8110  64.2540

     occupation numbers 
     1.0000   1.0000   1.0000   1.0000   1.0000   1.0000   1.0000   1.0000
     1.0000   1.0000   1.0000   1.0000   1.0000   1.0000   1.0000   1.0000
     1.0000   1.0000   1.0000   1.0000   1.0000   1.0000   0.0000   0.0000
     0.0000   0.0000   0.0000   0.0000   0.0000   0.0000   0.0000   0.0000
     0.0000   0.0000   0.0000   0.0000   0.0000   0.0000   0.0000   0.0000
     0.0000   0.0000   0.0000   0.0000   0.0000   0.0000   0.0000   0.0000
     0.0000   0.0000   0.0000   0.0000   0.0000   0.0000   0.0000   0.0000
     0.0000   0.0000   0.0000   0.0000   0.0000   0.0000   0.0000   0.0000

          k = 0.0812 0.0812-0.1409 ( 24141 PWs)   bands (ev):

   -74.2798 -69.0123 -40.8409 -40.8079 -40.7890 -35.7442 -35.7193 -35.6631
    -4.0394  -3.9665   7.8471   8.2033  10.1778  10.2979  10.4217  11.1377
    11.2577  12.1839  12.3700  12.6496  13.4264  14.7308  15.2536  15.6775
    16.1384  16.9392  18.8549  19.2862  24.8971  25.4641  29.0288  30.2881
    31.7348  32.0913  33.1781  35.1014  36.0036  36.1773  36.8879  38.5979
    39.9181  40.6739  42.3150  43.1256  43.4296  43.6480  44.7423  45.1595
    45.5919  45.9845  46.6924  49.3030  52.7951  53.5333  54.6940  55.5015
    56.0145  57.6548  57.7285  59.3350  61.2683  61.3923  61.5093  62.3325

     occupation numbers 
     1.0000   1.0000   1.0000   1.0000   1.0000   1.0000   1.0000   1.0000
     1.0000   1.0000   1.0000   1.0000   1.0000   1.0000   1.0000   1.0000
     1.0000   1.0000   1.0000   1.0000   1.0000   1.0000   0.0000   0.0000
     0.0000   0.0000   0.0000   0.0000   0.0000   0.0000   0.0000   0.0000
     0.0000   0.0000   0.0000   0.0000   0.0000   0.0000   0.0000   0.0000
     0.0000   0.0000   0.0000   0.0000   0.0000   0.0000   0.0000   0.0000
     0.0000   0.0000   0.0000   0.0000   0.0000   0.0000   0.0000   0.0000
     0.0000   0.0000   0.0000   0.0000   0.0000   0.0000   0.0000   0.0000

     the spin up/dw Fermi energies are    15.0468   15.0468 ev

!    total energy              =    -552.13286353 Ry
     Harris-Foulkes estimate   =    -552.13286353 Ry
     estimated scf accuracy    <          3.6E-11 Ry

     total magnetization       =    -0.00 Bohr mag/cell
     absolute magnetization    =     7.30 Bohr mag/cell

     convergence has been achieved in  15 iterations

     Using ACE for calculation of exact exchange

     EXX grid:   192893 G-vectors     FFT dimensions: ( 135, 135, 135)
-------------------------------------------------------
Primary job  terminated normally, but 1 process returned
a non-zero exit code. Per user-direction, the job has been aborted.
-------------------------------------------------------
12 total processes killed (some possibly by mpiexec during cleanup)
