
     Program PWSCF v.6.7MaX starts on 22Nov2021 at 11:24:36 

     This program is part of the open-source Quantum ESPRESSO suite
     for quantum simulation of materials; please cite
         "P. Giannozzi et al., J. Phys.:Condens. Matter 21 395502 (2009);
         "P. Giannozzi et al., J. Phys.:Condens. Matter 29 465901 (2017);
          URL http://www.quantum-espresso.org", 
     in publications or presentations arising from this work. More details at
     http://www.quantum-espresso.org/quote

     Parallel version (MPI), running on    48 processors

     MPI processes distributed on     1 nodes
     R & G space division:  proc/nbgrp/npool/nimage =      48
     Reading input from scf.in

     Current dimensions of program PWSCF are:
     Max number of different atomic species (ntypx) = 10
     Max number of k-points (npk) =  40000
     Max angular momentum in pseudopotentials (lmaxx) =  3
     Message from routine scan_end:
     No INFO block end statement, possibly corrupted file
     Message from routine scan_end:
     No INFO block end statement, possibly corrupted file
     Message from routine scan_end:
     No INFO block end statement, possibly corrupted file

     IMPORTANT: XC functional enforced from input :
     Exchange-correlation= PBE
                           (   1   4   3   4   0   0   0)
     Any further DFT definition will be discarded
     Please, verify this is what you really want


     Subspace diagonalization in iterative solution of the eigenvalue problem:
     one sub-group per band group will be used
     scalapack distributed-memory algorithm (size of sub-group:  6*  6 procs)

 
     Parallelization info
     --------------------
     sticks:   dense  smooth     PW     G-vecs:    dense   smooth      PW
     Min         336     336     87                32092    32092    4297
     Max         337     337     88                32097    32097    4304
     Sum       16141   16141   4221              1540499  1540499  206437
 


     bravais-lattice index     =            1
     lattice parameter (alat)  =       7.9576  a.u.
     unit-cell volume          =     503.9013 (a.u.)^3
     number of atoms/cell      =            8
     number of atomic types    =            3
     number of electrons       =        46.00 (up:  25.00, down:  21.00)
     number of Kohn-Sham states=           32
     kinetic-energy cutoff     =     800.0000  Ry
     charge density cutoff     =    3200.0000  Ry
     scf convergence threshold =      1.0E-10
     mixing beta               =       0.3000
     number of iterations used =            8  plain     mixing
     Exchange-correlation= PBE
                           (   1   4   3   4   0   0   0)

     celldm(1)=   7.957595  celldm(2)=   0.000000  celldm(3)=   0.000000
     celldm(4)=   0.000000  celldm(5)=   0.000000  celldm(6)=   0.000000

     crystal axes: (cart. coord. in units of alat)
               a(1) = (   1.000000   0.000000   0.000000 )  
               a(2) = (   0.000000   1.000000   0.000000 )  
               a(3) = (   0.000000   0.000000   1.000000 )  

     reciprocal axes: (cart. coord. in units 2 pi/alat)
               b(1) = (  1.000000  0.000000  0.000000 )  
               b(2) = (  0.000000  1.000000  0.000000 )  
               b(3) = (  0.000000  0.000000  1.000000 )  


     PseudoPot. # 1 for Fe read from file:
     /ascldap/users/jptowns/ferropericlase_spintransition/pseudos/Fe.ccECP.upf
     MD5 check sum: 375ee7e2ce333dc2f1485c86089d969e
     Pseudo is Norm-conserving, Zval = 16.0
     Generated by new atomic code, or converted to UPF format
     Using radial grid of 1160 points,  2 beta functions with: 
                l(1) =   1
                l(2) =   2

     PseudoPot. # 2 for Mg read from file:
     /ascldap/users/jptowns/ferropericlase_spintransition/pseudos/Mg.ccECP.upf
     MD5 check sum: 94218cb30fa6b3f6810c07405bb1118c
     Pseudo is Norm-conserving, Zval =  2.0
     Generated by new atomic code, or converted to UPF format
     Using radial grid of 1140 points,  2 beta functions with: 
                l(1) =   0
                l(2) =   2

     PseudoPot. # 3 for O  read from file:
     /ascldap/users/jptowns/ferropericlase_spintransition/pseudos/O.ccECP.upf
     MD5 check sum: f8511452b848d8673c004e477b4fc277
     Pseudo is Norm-conserving, Zval =  6.0
     Generated by new atomic code, or converted to UPF format
     Using radial grid of 1130 points,  1 beta functions with: 
                l(1) =   0

     atomic species   valence    mass     pseudopotential
        Fe            16.00    55.84500     Fe( 1.00)
        Mg             2.00    24.30500     Mg( 1.00)
        O              6.00    15.99900     O ( 1.00)

     Starting magnetic structure 
     atomic species   magnetization
        Fe           0.000
        Mg           0.000
        O            0.000


     Simplified LDA+U calculation (l_max = 2) with parameters (eV):
     atomic species    L          U    alpha       J0     beta
        Fe             2     5.0000   0.0000   0.0000   0.0000



     48 Sym. Ops., with inversion, found


                                    s                        frac. trans.

      isym =  1     identity                                     

 cryst.   s( 1) = (     1          0          0      )
                  (     0          1          0      )
                  (     0          0          1      )

 cart.    s( 1) = (  1.0000000  0.0000000  0.0000000 )
                  (  0.0000000  1.0000000  0.0000000 )
                  (  0.0000000  0.0000000  1.0000000 )


      isym =  2     180 deg rotation - cart. axis [0,0,1]        

 cryst.   s( 2) = (    -1          0          0      )
                  (     0         -1          0      )
                  (     0          0          1      )

 cart.    s( 2) = ( -1.0000000  0.0000000  0.0000000 )
                  (  0.0000000 -1.0000000  0.0000000 )
                  (  0.0000000  0.0000000  1.0000000 )


      isym =  3     180 deg rotation - cart. axis [0,1,0]        

 cryst.   s( 3) = (    -1          0          0      )
                  (     0          1          0      )
                  (     0          0         -1      )

 cart.    s( 3) = ( -1.0000000  0.0000000  0.0000000 )
                  (  0.0000000  1.0000000  0.0000000 )
                  (  0.0000000  0.0000000 -1.0000000 )


      isym =  4     180 deg rotation - cart. axis [1,0,0]        

 cryst.   s( 4) = (     1          0          0      )
                  (     0         -1          0      )
                  (     0          0         -1      )

 cart.    s( 4) = (  1.0000000  0.0000000  0.0000000 )
                  (  0.0000000 -1.0000000  0.0000000 )
                  (  0.0000000  0.0000000 -1.0000000 )


      isym =  5     180 deg rotation - cart. axis [1,1,0]        

 cryst.   s( 5) = (     0          1          0      )
                  (     1          0          0      )
                  (     0          0         -1      )

 cart.    s( 5) = (  0.0000000  1.0000000  0.0000000 )
                  (  1.0000000  0.0000000  0.0000000 )
                  (  0.0000000  0.0000000 -1.0000000 )


      isym =  6     180 deg rotation - cart. axis [1,-1,0]       

 cryst.   s( 6) = (     0         -1          0      )
                  (    -1          0          0      )
                  (     0          0         -1      )

 cart.    s( 6) = (  0.0000000 -1.0000000  0.0000000 )
                  ( -1.0000000  0.0000000  0.0000000 )
                  (  0.0000000  0.0000000 -1.0000000 )


      isym =  7      90 deg rotation - cart. axis [0,0,-1]       

 cryst.   s( 7) = (     0         -1          0      )
                  (     1          0          0      )
                  (     0          0          1      )

 cart.    s( 7) = (  0.0000000  1.0000000  0.0000000 )
                  ( -1.0000000  0.0000000  0.0000000 )
                  (  0.0000000  0.0000000  1.0000000 )


      isym =  8      90 deg rotation - cart. axis [0,0,1]        

 cryst.   s( 8) = (     0          1          0      )
                  (    -1          0          0      )
                  (     0          0          1      )

 cart.    s( 8) = (  0.0000000 -1.0000000  0.0000000 )
                  (  1.0000000  0.0000000  0.0000000 )
                  (  0.0000000  0.0000000  1.0000000 )


      isym =  9     180 deg rotation - cart. axis [1,0,1]        

 cryst.   s( 9) = (     0          0          1      )
                  (     0         -1          0      )
                  (     1          0          0      )

 cart.    s( 9) = (  0.0000000  0.0000000  1.0000000 )
                  (  0.0000000 -1.0000000  0.0000000 )
                  (  1.0000000  0.0000000  0.0000000 )


      isym = 10     180 deg rotation - cart. axis [-1,0,1]       

 cryst.   s(10) = (     0          0         -1      )
                  (     0         -1          0      )
                  (    -1          0          0      )

 cart.    s(10) = (  0.0000000  0.0000000 -1.0000000 )
                  (  0.0000000 -1.0000000  0.0000000 )
                  ( -1.0000000  0.0000000  0.0000000 )


      isym = 11      90 deg rotation - cart. axis [0,1,0]        

 cryst.   s(11) = (     0          0         -1      )
                  (     0          1          0      )
                  (     1          0          0      )

 cart.    s(11) = (  0.0000000  0.0000000  1.0000000 )
                  (  0.0000000  1.0000000  0.0000000 )
                  ( -1.0000000  0.0000000  0.0000000 )


      isym = 12      90 deg rotation - cart. axis [0,-1,0]       

 cryst.   s(12) = (     0          0          1      )
                  (     0          1          0      )
                  (    -1          0          0      )

 cart.    s(12) = (  0.0000000  0.0000000 -1.0000000 )
                  (  0.0000000  1.0000000  0.0000000 )
                  (  1.0000000  0.0000000  0.0000000 )


      isym = 13     180 deg rotation - cart. axis [0,1,1]        

 cryst.   s(13) = (    -1          0          0      )
                  (     0          0          1      )
                  (     0          1          0      )

 cart.    s(13) = ( -1.0000000  0.0000000  0.0000000 )
                  (  0.0000000  0.0000000  1.0000000 )
                  (  0.0000000  1.0000000  0.0000000 )


      isym = 14     180 deg rotation - cart. axis [0,1,-1]       

 cryst.   s(14) = (    -1          0          0      )
                  (     0          0         -1      )
                  (     0         -1          0      )

 cart.    s(14) = ( -1.0000000  0.0000000  0.0000000 )
                  (  0.0000000  0.0000000 -1.0000000 )
                  (  0.0000000 -1.0000000  0.0000000 )


      isym = 15      90 deg rotation - cart. axis [-1,0,0]       

 cryst.   s(15) = (     1          0          0      )
                  (     0          0         -1      )
                  (     0          1          0      )

 cart.    s(15) = (  1.0000000  0.0000000  0.0000000 )
                  (  0.0000000  0.0000000  1.0000000 )
                  (  0.0000000 -1.0000000  0.0000000 )


      isym = 16      90 deg rotation - cart. axis [1,0,0]        

 cryst.   s(16) = (     1          0          0      )
                  (     0          0          1      )
                  (     0         -1          0      )

 cart.    s(16) = (  1.0000000  0.0000000  0.0000000 )
                  (  0.0000000  0.0000000 -1.0000000 )
                  (  0.0000000  1.0000000  0.0000000 )


      isym = 17     120 deg rotation - cart. axis [-1,-1,-1]     

 cryst.   s(17) = (     0          0          1      )
                  (     1          0          0      )
                  (     0          1          0      )

 cart.    s(17) = (  0.0000000  1.0000000  0.0000000 )
                  (  0.0000000  0.0000000  1.0000000 )
                  (  1.0000000  0.0000000  0.0000000 )


      isym = 18     120 deg rotation - cart. axis [-1,1,1]       

 cryst.   s(18) = (     0          0         -1      )
                  (    -1          0          0      )
                  (     0          1          0      )

 cart.    s(18) = (  0.0000000 -1.0000000  0.0000000 )
                  (  0.0000000  0.0000000  1.0000000 )
                  ( -1.0000000  0.0000000  0.0000000 )


      isym = 19     120 deg rotation - cart. axis [1,1,-1]       

 cryst.   s(19) = (     0          0         -1      )
                  (     1          0          0      )
                  (     0         -1          0      )

 cart.    s(19) = (  0.0000000  1.0000000  0.0000000 )
                  (  0.0000000  0.0000000 -1.0000000 )
                  ( -1.0000000  0.0000000  0.0000000 )


      isym = 20     120 deg rotation - cart. axis [1,-1,1]       

 cryst.   s(20) = (     0          0          1      )
                  (    -1          0          0      )
                  (     0         -1          0      )

 cart.    s(20) = (  0.0000000 -1.0000000  0.0000000 )
                  (  0.0000000  0.0000000 -1.0000000 )
                  (  1.0000000  0.0000000  0.0000000 )


      isym = 21     120 deg rotation - cart. axis [1,1,1]        

 cryst.   s(21) = (     0          1          0      )
                  (     0          0          1      )
                  (     1          0          0      )

 cart.    s(21) = (  0.0000000  0.0000000  1.0000000 )
                  (  1.0000000  0.0000000  0.0000000 )
                  (  0.0000000  1.0000000  0.0000000 )


      isym = 22     120 deg rotation - cart. axis [-1,1,-1]      

 cryst.   s(22) = (     0         -1          0      )
                  (     0          0         -1      )
                  (     1          0          0      )

 cart.    s(22) = (  0.0000000  0.0000000  1.0000000 )
                  ( -1.0000000  0.0000000  0.0000000 )
                  (  0.0000000 -1.0000000  0.0000000 )


      isym = 23     120 deg rotation - cart. axis [1,-1,-1]      

 cryst.   s(23) = (     0         -1          0      )
                  (     0          0          1      )
                  (    -1          0          0      )

 cart.    s(23) = (  0.0000000  0.0000000 -1.0000000 )
                  ( -1.0000000  0.0000000  0.0000000 )
                  (  0.0000000  1.0000000  0.0000000 )


      isym = 24     120 deg rotation - cart. axis [-1,-1,1]      

 cryst.   s(24) = (     0          1          0      )
                  (     0          0         -1      )
                  (    -1          0          0      )

 cart.    s(24) = (  0.0000000  0.0000000 -1.0000000 )
                  (  1.0000000  0.0000000  0.0000000 )
                  (  0.0000000 -1.0000000  0.0000000 )


      isym = 25     inversion                                    

 cryst.   s(25) = (    -1          0          0      )
                  (     0         -1          0      )
                  (     0          0         -1      )

 cart.    s(25) = ( -1.0000000  0.0000000  0.0000000 )
                  (  0.0000000 -1.0000000  0.0000000 )
                  (  0.0000000  0.0000000 -1.0000000 )


      isym = 26     inv. 180 deg rotation - cart. axis [0,0,1]   

 cryst.   s(26) = (     1          0          0      )
                  (     0          1          0      )
                  (     0          0         -1      )

 cart.    s(26) = (  1.0000000  0.0000000  0.0000000 )
                  (  0.0000000  1.0000000  0.0000000 )
                  (  0.0000000  0.0000000 -1.0000000 )


      isym = 27     inv. 180 deg rotation - cart. axis [0,1,0]   

 cryst.   s(27) = (     1          0          0      )
                  (     0         -1          0      )
                  (     0          0          1      )

 cart.    s(27) = (  1.0000000  0.0000000  0.0000000 )
                  (  0.0000000 -1.0000000  0.0000000 )
                  (  0.0000000  0.0000000  1.0000000 )


      isym = 28     inv. 180 deg rotation - cart. axis [1,0,0]   

 cryst.   s(28) = (    -1          0          0      )
                  (     0          1          0      )
                  (     0          0          1      )

 cart.    s(28) = ( -1.0000000  0.0000000  0.0000000 )
                  (  0.0000000  1.0000000  0.0000000 )
                  (  0.0000000  0.0000000  1.0000000 )


      isym = 29     inv. 180 deg rotation - cart. axis [1,1,0]   

 cryst.   s(29) = (     0         -1          0      )
                  (    -1          0          0      )
                  (     0          0          1      )

 cart.    s(29) = (  0.0000000 -1.0000000  0.0000000 )
                  ( -1.0000000  0.0000000  0.0000000 )
                  (  0.0000000  0.0000000  1.0000000 )


      isym = 30     inv. 180 deg rotation - cart. axis [1,-1,0]  

 cryst.   s(30) = (     0          1          0      )
                  (     1          0          0      )
                  (     0          0          1      )

 cart.    s(30) = (  0.0000000  1.0000000  0.0000000 )
                  (  1.0000000  0.0000000  0.0000000 )
                  (  0.0000000  0.0000000  1.0000000 )


      isym = 31     inv.  90 deg rotation - cart. axis [0,0,-1]  

 cryst.   s(31) = (     0          1          0      )
                  (    -1          0          0      )
                  (     0          0         -1      )

 cart.    s(31) = (  0.0000000 -1.0000000  0.0000000 )
                  (  1.0000000  0.0000000  0.0000000 )
                  (  0.0000000  0.0000000 -1.0000000 )


      isym = 32     inv.  90 deg rotation - cart. axis [0,0,1]   

 cryst.   s(32) = (     0         -1          0      )
                  (     1          0          0      )
                  (     0          0         -1      )

 cart.    s(32) = (  0.0000000  1.0000000  0.0000000 )
                  ( -1.0000000  0.0000000  0.0000000 )
                  (  0.0000000  0.0000000 -1.0000000 )


      isym = 33     inv. 180 deg rotation - cart. axis [1,0,1]   

 cryst.   s(33) = (     0          0         -1      )
                  (     0          1          0      )
                  (    -1          0          0      )

 cart.    s(33) = (  0.0000000  0.0000000 -1.0000000 )
                  (  0.0000000  1.0000000  0.0000000 )
                  ( -1.0000000  0.0000000  0.0000000 )


      isym = 34     inv. 180 deg rotation - cart. axis [-1,0,1]  

 cryst.   s(34) = (     0          0          1      )
                  (     0          1          0      )
                  (     1          0          0      )

 cart.    s(34) = (  0.0000000  0.0000000  1.0000000 )
                  (  0.0000000  1.0000000  0.0000000 )
                  (  1.0000000  0.0000000  0.0000000 )


      isym = 35     inv.  90 deg rotation - cart. axis [0,1,0]   

 cryst.   s(35) = (     0          0          1      )
                  (     0         -1          0      )
                  (    -1          0          0      )

 cart.    s(35) = (  0.0000000  0.0000000 -1.0000000 )
                  (  0.0000000 -1.0000000  0.0000000 )
                  (  1.0000000  0.0000000  0.0000000 )


      isym = 36     inv.  90 deg rotation - cart. axis [0,-1,0]  

 cryst.   s(36) = (     0          0         -1      )
                  (     0         -1          0      )
                  (     1          0          0      )

 cart.    s(36) = (  0.0000000  0.0000000  1.0000000 )
                  (  0.0000000 -1.0000000  0.0000000 )
                  ( -1.0000000  0.0000000  0.0000000 )


      isym = 37     inv. 180 deg rotation - cart. axis [0,1,1]   

 cryst.   s(37) = (     1          0          0      )
                  (     0          0         -1      )
                  (     0         -1          0      )

 cart.    s(37) = (  1.0000000  0.0000000  0.0000000 )
                  (  0.0000000  0.0000000 -1.0000000 )
                  (  0.0000000 -1.0000000  0.0000000 )


      isym = 38     inv. 180 deg rotation - cart. axis [0,1,-1]  

 cryst.   s(38) = (     1          0          0      )
                  (     0          0          1      )
                  (     0          1          0      )

 cart.    s(38) = (  1.0000000  0.0000000  0.0000000 )
                  (  0.0000000  0.0000000  1.0000000 )
                  (  0.0000000  1.0000000  0.0000000 )


      isym = 39     inv.  90 deg rotation - cart. axis [-1,0,0]  

 cryst.   s(39) = (    -1          0          0      )
                  (     0          0          1      )
                  (     0         -1          0      )

 cart.    s(39) = ( -1.0000000  0.0000000  0.0000000 )
                  (  0.0000000  0.0000000 -1.0000000 )
                  (  0.0000000  1.0000000  0.0000000 )


      isym = 40     inv.  90 deg rotation - cart. axis [1,0,0]   

 cryst.   s(40) = (    -1          0          0      )
                  (     0          0         -1      )
                  (     0          1          0      )

 cart.    s(40) = ( -1.0000000  0.0000000  0.0000000 )
                  (  0.0000000  0.0000000  1.0000000 )
                  (  0.0000000 -1.0000000  0.0000000 )


      isym = 41     inv. 120 deg rotation - cart. axis [-1,-1,-1]

 cryst.   s(41) = (     0          0         -1      )
                  (    -1          0          0      )
                  (     0         -1          0      )

 cart.    s(41) = (  0.0000000 -1.0000000  0.0000000 )
                  (  0.0000000  0.0000000 -1.0000000 )
                  ( -1.0000000  0.0000000  0.0000000 )


      isym = 42     inv. 120 deg rotation - cart. axis [-1,1,1]  

 cryst.   s(42) = (     0          0          1      )
                  (     1          0          0      )
                  (     0         -1          0      )

 cart.    s(42) = (  0.0000000  1.0000000  0.0000000 )
                  (  0.0000000  0.0000000 -1.0000000 )
                  (  1.0000000  0.0000000  0.0000000 )


      isym = 43     inv. 120 deg rotation - cart. axis [1,1,-1]  

 cryst.   s(43) = (     0          0          1      )
                  (    -1          0          0      )
                  (     0          1          0      )

 cart.    s(43) = (  0.0000000 -1.0000000  0.0000000 )
                  (  0.0000000  0.0000000  1.0000000 )
                  (  1.0000000  0.0000000  0.0000000 )


      isym = 44     inv. 120 deg rotation - cart. axis [1,-1,1]  

 cryst.   s(44) = (     0          0         -1      )
                  (     1          0          0      )
                  (     0          1          0      )

 cart.    s(44) = (  0.0000000  1.0000000  0.0000000 )
                  (  0.0000000  0.0000000  1.0000000 )
                  ( -1.0000000  0.0000000  0.0000000 )


      isym = 45     inv. 120 deg rotation - cart. axis [1,1,1]   

 cryst.   s(45) = (     0         -1          0      )
                  (     0          0         -1      )
                  (    -1          0          0      )

 cart.    s(45) = (  0.0000000  0.0000000 -1.0000000 )
                  ( -1.0000000  0.0000000  0.0000000 )
                  (  0.0000000 -1.0000000  0.0000000 )


      isym = 46     inv. 120 deg rotation - cart. axis [-1,1,-1] 

 cryst.   s(46) = (     0          1          0      )
                  (     0          0          1      )
                  (    -1          0          0      )

 cart.    s(46) = (  0.0000000  0.0000000 -1.0000000 )
                  (  1.0000000  0.0000000  0.0000000 )
                  (  0.0000000  1.0000000  0.0000000 )


      isym = 47     inv. 120 deg rotation - cart. axis [1,-1,-1] 

 cryst.   s(47) = (     0          1          0      )
                  (     0          0         -1      )
                  (     1          0          0      )

 cart.    s(47) = (  0.0000000  0.0000000  1.0000000 )
                  (  1.0000000  0.0000000  0.0000000 )
                  (  0.0000000 -1.0000000  0.0000000 )


      isym = 48     inv. 120 deg rotation - cart. axis [-1,-1,1] 

 cryst.   s(48) = (     0         -1          0      )
                  (     0          0          1      )
                  (     1          0          0      )

 cart.    s(48) = (  0.0000000  0.0000000  1.0000000 )
                  ( -1.0000000  0.0000000  0.0000000 )
                  (  0.0000000  1.0000000  0.0000000 )


     point group O_h (m-3m) 
     there are 10 classes
     the character table:

       E     8C3   3C2   6C4   6C2'  i     8S6   3s_h  6S4   6s_d 
A_1g   1.00  1.00  1.00  1.00  1.00  1.00  1.00  1.00  1.00  1.00
A_2g   1.00  1.00  1.00 -1.00 -1.00  1.00  1.00  1.00 -1.00 -1.00
E_g    2.00 -1.00  2.00  0.00  0.00  2.00 -1.00  2.00  0.00  0.00
T_1g   3.00  0.00 -1.00  1.00 -1.00  3.00  0.00 -1.00  1.00 -1.00
T_2g   3.00  0.00 -1.00 -1.00  1.00  3.00  0.00 -1.00 -1.00  1.00
A_1u   1.00  1.00  1.00  1.00  1.00 -1.00 -1.00 -1.00 -1.00 -1.00
A_2u   1.00  1.00  1.00 -1.00 -1.00 -1.00 -1.00 -1.00  1.00  1.00
E_u    2.00 -1.00  2.00  0.00  0.00 -2.00  1.00 -2.00  0.00  0.00
T_1u   3.00  0.00 -1.00  1.00 -1.00 -3.00  0.00  1.00 -1.00  1.00
T_2u   3.00  0.00 -1.00 -1.00  1.00 -3.00  0.00  1.00  1.00 -1.00

     the symmetry operations in each class and the name of the first element:

     E        1
          identity                                               
     8C3     17   19   20   18   24   21   22   23
          120 deg rotation - cart. axis [-1,-1,-1]               
     3C2      2    4    3
          180 deg rotation - cart. axis [0,0,1]                  
     6C4      7    8   15   16   12   11
           90 deg rotation - cart. axis [0,0,-1]                 
     6C2'     5    6   14   13   10    9
          180 deg rotation - cart. axis [1,1,0]                  
     i       25
          inversion                                              
     8S6     41   43   44   42   48   45   46   47
          inv. 120 deg rotation - cart. axis [-1,-1,-1]          
     3s_h    26   28   27
          inv. 180 deg rotation - cart. axis [0,0,1]             
     6S4     31   32   39   40   36   35
          inv.  90 deg rotation - cart. axis [0,0,-1]            
     6s_d    29   30   38   37   34   33
          inv. 180 deg rotation - cart. axis [1,1,0]             

   Cartesian axes

     site n.     atom                  positions (alat units)
         1           Fe  tau(   1) = (   0.0000000   0.0000000   0.0000000  )
         2           Mg  tau(   2) = (   0.0000000   0.5000000   0.5000000  )
         3           Mg  tau(   3) = (   0.5000000   0.0000000   0.5000000  )
         4           Mg  tau(   4) = (   0.5000000   0.5000000   0.0000000  )
         5           O   tau(   5) = (   0.5000000   0.5000000   0.5000000  )
         6           O   tau(   6) = (   0.5000000   0.0000000   0.0000000  )
         7           O   tau(   7) = (   0.0000000   0.5000000   0.0000000  )
         8           O   tau(   8) = (   0.0000000   0.0000000   0.5000000  )

   Crystallographic axes

     site n.     atom                  positions (cryst. coord.)
         1           Fe  tau(   1) = (  0.0000000  0.0000000  0.0000000  )
         2           Mg  tau(   2) = (  0.0000000  0.5000000  0.5000000  )
         3           Mg  tau(   3) = (  0.5000000  0.0000000  0.5000000  )
         4           Mg  tau(   4) = (  0.5000000  0.5000000  0.0000000  )
         5           O   tau(   5) = (  0.5000000  0.5000000  0.5000000  )
         6           O   tau(   6) = (  0.5000000  0.0000000  0.0000000  )
         7           O   tau(   7) = (  0.0000000  0.5000000  0.0000000  )
         8           O   tau(   8) = (  0.0000000  0.0000000  0.5000000  )

     number of k points=     4  Fermi-Dirac smearing, width (Ry)=  0.0019
                       cart. coord. in units 2pi/alat
        k(    1) = (   0.0000000   0.0000000   0.0000000), wk =   0.1250000
        k(    2) = (   0.0000000   0.0000000  -0.5000000), wk =   0.3750000
        k(    3) = (   0.0000000  -0.5000000  -0.5000000), wk =   0.3750000
        k(    4) = (  -0.5000000  -0.5000000  -0.5000000), wk =   0.1250000

                       cryst. coord.
        k(    1) = (   0.0000000   0.0000000   0.0000000), wk =   0.1250000
        k(    2) = (   0.0000000   0.0000000  -0.5000000), wk =   0.3750000
        k(    3) = (   0.0000000  -0.5000000  -0.5000000), wk =   0.3750000
        k(    4) = (  -0.5000000  -0.5000000  -0.5000000), wk =   0.1250000

     Dense  grid:  1540499 G-vectors     FFT dimensions: ( 144, 144, 144)

     Dynamical RAM for                 wfc:       1.96 MB

     Dynamical RAM for     wfc (w. buffer):      17.63 MB

     Dynamical RAM for             U proj.:       0.31 MB

     Dynamical RAM for  U proj. (w. buff.):       2.75 MB

     Dynamical RAM for           str. fact:       1.47 MB

     Dynamical RAM for           local pot:       0.00 MB

     Dynamical RAM for          nlocal pot:       1.84 MB

     Dynamical RAM for                qrad:       1.94 MB

     Dynamical RAM for          rho,v,vnew:       5.79 MB

     Dynamical RAM for               rhoin:       1.93 MB

     Dynamical RAM for            rho*nmix:      15.67 MB

     Dynamical RAM for           G-vectors:       2.08 MB

     Dynamical RAM for          h,s,v(r/c):       0.00 MB

     Dynamical RAM for          <psi|beta>:       0.01 MB

     Dynamical RAM for                 psi:       3.92 MB

     Dynamical RAM for                hpsi:       3.92 MB

     Dynamical RAM for      wfcinit/wfcrot:       6.43 MB

     Estimated static dynamical RAM per process >      55.90 MB

     Estimated max dynamical RAM per process >      63.76 MB

     Estimated total dynamical RAM >       2.99 GB
     Generating pointlists ...
     new r_m :   0.2063 (alat units)  1.6413 (a.u.) for type    1
     new r_m :   0.2063 (alat units)  1.6413 (a.u.) for type    2
     new r_m :   0.2063 (alat units)  1.6413 (a.u.) for type    3

     Initial potential from superposition of free atoms

     starting charge   39.00170, renormalised to   46.00000

     negative rho (up, down):  5.519E-07 5.519E-07
 --- in v_hubbard ---
Hubbard energy    0.4410
 -------
     Number of +U iterations with fixed ns =100
     Starting occupations:
 --- enter write_ns ---
 LDA+U parameters:
U( 1)     =  5.00000000
atom    1   Tr[ns(na)] (up, down, total) =   3.00000  3.00000  6.00000
   spin  1
    eigenvalues: 
  0.600  0.600  0.600  0.600  0.600
    eigenvectors:
  1.000  0.000  0.000  0.000  0.000
  0.000  1.000  0.000  0.000  0.000
  0.000  0.000  1.000  0.000  0.000
  0.000  0.000  0.000  1.000  0.000
  0.000  0.000  0.000  0.000  1.000
    occupations:
  0.600  0.000  0.000  0.000  0.000
  0.000  0.600  0.000  0.000  0.000
  0.000  0.000  0.600  0.000  0.000
  0.000  0.000  0.000  0.600  0.000
  0.000  0.000  0.000  0.000  0.600
   spin  2
    eigenvalues: 
  0.600  0.600  0.600  0.600  0.600
    eigenvectors:
  1.000  0.000  0.000  0.000  0.000
  0.000  1.000  0.000  0.000  0.000
  0.000  0.000  1.000  0.000  0.000
  0.000  0.000  0.000  1.000  0.000
  0.000  0.000  0.000  0.000  1.000
    occupations:
  0.600  0.000  0.000  0.000  0.000
  0.000  0.600  0.000  0.000  0.000
  0.000  0.000  0.600  0.000  0.000
  0.000  0.000  0.000  0.600  0.000
  0.000  0.000  0.000  0.000  0.600
atomic mag. moment =   0.00000
N of occupied +U levels =    6.000000
 --- exit write_ns ---
 Atomic wfc used for LDA+U Projector are NOT orthogonalized
     Starting wfcs are   52 randomized atomic wfcs

     total cpu time spent up to now is        4.2 secs

     Self-consistent Calculation

     iteration #  1     ecut=   800.00 Ry     beta= 0.30
     Davidson diagonalization with overlap
     ethr =  1.00E-02,  avg # of iterations = 10.2
 --- enter write_ns ---
 LDA+U parameters:
U( 1)     =  5.00000000
atom    1   Tr[ns(na)] (up, down, total) =   0.19347  0.15393  0.34740
   spin  1
    eigenvalues: 
  0.029  0.029  0.029  0.054  0.054
    eigenvectors:
  0.000  0.000  0.000  0.001  0.999
  0.134  0.022  0.844  0.000  0.000
  0.368  0.506  0.127  0.000  0.000
  0.000  0.000  0.000  0.999  0.001
  0.498  0.473  0.029  0.000  0.000
    occupations:
  0.054 -0.000 -0.000  0.000  0.000
 -0.000  0.029 -0.000  0.000  0.000
 -0.000 -0.000  0.029  0.000  0.000
  0.000  0.000  0.000  0.054 -0.000
  0.000  0.000  0.000 -0.000  0.029
   spin  2
    eigenvalues: 
  0.017  0.017  0.017  0.052  0.052
    eigenvectors:
  0.000  0.000  0.000  0.005  0.995
  0.109  0.006  0.885  0.000  0.000
  0.315  0.616  0.068  0.000  0.000
  0.000  0.000  0.000  0.995  0.005
  0.576  0.378  0.046  0.000  0.000
    occupations:
  0.052 -0.000 -0.000  0.000  0.000
 -0.000  0.017 -0.000  0.000  0.000
 -0.000 -0.000  0.017  0.000  0.000
  0.000  0.000  0.000  0.052 -0.000
  0.000  0.000  0.000 -0.000  0.017
atomic mag. moment =   0.03954
N of occupied +U levels =    0.347398
 --- exit write_ns ---
 Modify starting ns matrices according to input values 
 --- enter write_ns ---
 LDA+U parameters:
U( 1)     =  5.00000000
atom    1   Tr[ns(na)] (up, down, total) =   5.00000  1.00000  6.00000
   spin  1
    eigenvalues: 
  1.000  1.000  1.000  1.000  1.000
    eigenvectors:
  0.009  0.062  0.730  0.172  0.028
  0.110  0.522  0.185  0.173  0.009
  0.188  0.034  0.000  0.251  0.526
  0.044  0.115  0.085  0.361  0.394
  0.649  0.266  0.000  0.043  0.043
    occupations:
  1.000  0.000 -0.000 -0.000  0.000
  0.000  1.000  0.000  0.000 -0.000
 -0.000  0.000  1.000 -0.000  0.000
 -0.000  0.000 -0.000  1.000 -0.000
  0.000 -0.000  0.000 -0.000  1.000
   spin  2
    eigenvalues: 
 -0.000 -0.000  0.000  0.000  1.000
    eigenvectors:
  0.000  1.000  0.000  0.000  0.000
  0.006  0.000  0.979  0.010  0.006
  0.302  0.000  0.017  0.066  0.616
  0.187  0.000  0.003  0.810  0.000
  0.505  0.000  0.002  0.115  0.378
    occupations:
  0.000  0.000  0.000  0.000  0.000
  0.000  0.006  0.061  0.000  0.048
  0.000  0.061  0.616  0.000  0.482
  0.000  0.000  0.000  0.000  0.000
  0.000  0.048  0.482  0.000  0.378
atomic mag. moment =   4.00000
N of occupied +U levels =    6.000000
 --- exit write_ns ---

     RESET ns to initial values (iter <= mixing_fixed_ns)


     negative rho (up, down):  2.701E-07 3.026E-07
 --- in v_hubbard ---
Hubbard energy   -0.0000
 -------

     total cpu time spent up to now is        8.9 secs

     total energy              =    -372.65124414 Ry
     estimated scf accuracy    <      54.87494883 Ry

     total magnetization       =     4.00 Bohr mag/cell
     absolute magnetization    =     4.00 Bohr mag/cell

     iteration #  2     ecut=   800.00 Ry     beta= 0.30
     Davidson diagonalization with overlap
     ethr =  1.00E-02,  avg # of iterations =  9.1
 --- enter write_ns ---
 LDA+U parameters:
U( 1)     =  5.00000000
atom    1   Tr[ns(na)] (up, down, total) =   4.76015  3.76239  8.52254
   spin  1
    eigenvalues: 
  0.940  0.940  0.960  0.960  0.960
    eigenvectors:
  0.006  0.994  0.000  0.000  0.000
  0.000  0.000  0.122  0.005  0.873
  0.000  0.000  0.409  0.505  0.086
  0.994  0.006  0.000  0.000  0.000
  0.000  0.000  0.469  0.490  0.041
    occupations:
  0.940 -0.000 -0.000  0.000  0.000
 -0.000  0.960 -0.000  0.000  0.000
 -0.000 -0.000  0.960  0.000  0.000
  0.000  0.000  0.000  0.940 -0.000
  0.000  0.000  0.000 -0.000  0.960
   spin  2
    eigenvalues: 
  0.386  0.386  0.997  0.997  0.997
    eigenvectors:
  0.016  0.984  0.000  0.000  0.000
  0.000  0.000  0.106  0.005  0.889
  0.000  0.000  0.350  0.582  0.068
  0.984  0.016  0.000  0.000  0.000
  0.000  0.000  0.544  0.413  0.043
    occupations:
  0.386 -0.000 -0.000  0.000  0.000
 -0.000  0.997 -0.000  0.000  0.000
 -0.000 -0.000  0.997  0.000  0.000
  0.000  0.000  0.000  0.386 -0.000
  0.000  0.000  0.000 -0.000  0.997
atomic mag. moment =   0.99776
N of occupied +U levels =    8.522543
 --- exit write_ns ---

     RESET ns to initial values (iter <= mixing_fixed_ns)


     negative rho (up, down):  1.634E-07 1.945E-07
 --- in v_hubbard ---
Hubbard energy   -0.0000
 -------

     total cpu time spent up to now is       13.7 secs

     total energy              =    -378.92494386 Ry
     estimated scf accuracy    <      11.25039766 Ry

     total magnetization       =     4.00 Bohr mag/cell
     absolute magnetization    =     4.01 Bohr mag/cell

     iteration #  3     ecut=   800.00 Ry     beta= 0.30
     Davidson diagonalization with overlap
     ethr =  1.00E-02,  avg # of iterations =  2.2
 --- enter write_ns ---
 LDA+U parameters:
U( 1)     =  5.00000000
atom    1   Tr[ns(na)] (up, down, total) =   4.61341  1.25963  5.87304
   spin  1
    eigenvalues: 
  0.919  0.919  0.925  0.925  0.925
    eigenvectors:
  0.007  0.993  0.000  0.000  0.000
  0.000  0.000  0.132  0.009  0.859
  0.000  0.000  0.387  0.513  0.101
  0.993  0.007  0.000  0.000  0.000
  0.000  0.000  0.482  0.478  0.040
    occupations:
  0.919 -0.000 -0.000  0.000  0.000
 -0.000  0.925 -0.000  0.000  0.000
 -0.000 -0.000  0.925  0.000  0.000
  0.000  0.000  0.000  0.919 -0.000
  0.000  0.000  0.000 -0.000  0.925
   spin  2
    eigenvalues: 
  0.107  0.107  0.349  0.349  0.349
    eigenvectors:
  0.003  0.997  0.000  0.000  0.000
  0.000  0.000  0.129  0.004  0.868
  0.000  0.000  0.384  0.533  0.082
  0.997  0.003  0.000  0.000  0.000
  0.000  0.000  0.487  0.463  0.050
    occupations:
  0.107 -0.000 -0.000  0.000  0.000
 -0.000  0.349 -0.000  0.000  0.000
 -0.000 -0.000  0.349  0.000  0.000
  0.000  0.000  0.000  0.107 -0.000
  0.000  0.000  0.000 -0.000  0.349
atomic mag. moment =   3.35377
N of occupied +U levels =    5.873042
 --- exit write_ns ---

     RESET ns to initial values (iter <= mixing_fixed_ns)


     negative rho (up, down):  6.689E-08 9.529E-08
 --- in v_hubbard ---
Hubbard energy   -0.0000
 -------

     total cpu time spent up to now is       16.3 secs

     total energy              =    -381.70385601 Ry
     estimated scf accuracy    <       1.54520538 Ry

     total magnetization       =     4.00 Bohr mag/cell
     absolute magnetization    =     4.01 Bohr mag/cell

     iteration #  4     ecut=   800.00 Ry     beta= 0.30
     Davidson diagonalization with overlap
     ethr =  3.36E-03,  avg # of iterations =  2.4
 --- enter write_ns ---
 LDA+U parameters:
U( 1)     =  5.00000000
atom    1   Tr[ns(na)] (up, down, total) =   4.81654  1.30850  6.12504
   spin  1
    eigenvalues: 
  0.934  0.934  0.983  0.983  0.983
    eigenvectors:
  0.015  0.985  0.000  0.000  0.000
  0.000  0.000  0.120  0.028  0.853
  0.000  0.000  0.365  0.510  0.126
  0.985  0.015  0.000  0.000  0.000
  0.000  0.000  0.516  0.463  0.021
    occupations:
  0.934 -0.000 -0.000  0.000  0.000
 -0.000  0.983 -0.000  0.000  0.000
 -0.000 -0.000  0.983  0.000  0.000
  0.000  0.000  0.000  0.934 -0.000
  0.000  0.000  0.000 -0.000  0.983
   spin  2
    eigenvalues: 
  0.114  0.114  0.360  0.360  0.360
    eigenvectors:
  0.035  0.965  0.000  0.000  0.000
  0.000  0.000  0.142  0.022  0.837
  0.000  0.000  0.304  0.574  0.122
  0.965  0.035  0.000  0.000  0.000
  0.000  0.000  0.555  0.404  0.042
    occupations:
  0.114 -0.000 -0.000  0.000  0.000
 -0.000  0.360 -0.000  0.000  0.000
 -0.000 -0.000  0.360  0.000  0.000
  0.000  0.000  0.000  0.114 -0.000
  0.000  0.000  0.000 -0.000  0.360
atomic mag. moment =   3.50805
N of occupied +U levels =    6.125037
 --- exit write_ns ---

     RESET ns to initial values (iter <= mixing_fixed_ns)

 --- in v_hubbard ---
Hubbard energy   -0.0000
 -------

     total cpu time spent up to now is       18.5 secs

     total energy              =    -381.82509412 Ry
     estimated scf accuracy    <       0.55099783 Ry

     total magnetization       =     4.00 Bohr mag/cell
     absolute magnetization    =     4.01 Bohr mag/cell

     iteration #  5     ecut=   800.00 Ry     beta= 0.30
     Davidson diagonalization with overlap
     ethr =  1.20E-03,  avg # of iterations =  3.6
 --- enter write_ns ---
 LDA+U parameters:
U( 1)     =  5.00000000
atom    1   Tr[ns(na)] (up, down, total) =   4.97741  1.38353  6.36095
   spin  1
    eigenvalues: 
  0.994  0.994  0.994  0.997  0.997
    eigenvectors:
  0.000  0.000  0.000  0.000  1.000
  0.129  0.000  0.871  0.000  0.000
  0.355  0.590  0.055  0.000  0.000
  0.000  0.000  0.000  1.000  0.000
  0.516  0.409  0.074  0.000  0.000
    occupations:
  0.997 -0.000 -0.000  0.000  0.000
 -0.000  0.994 -0.000  0.000  0.000
 -0.000 -0.000  0.994  0.000  0.000
  0.000  0.000  0.000  0.997 -0.000
  0.000  0.000  0.000 -0.000  0.994
   spin  2
    eigenvalues: 
  0.141  0.141  0.367  0.367  0.367
    eigenvectors:
  0.030  0.970  0.000  0.000  0.000
  0.000  0.000  0.140  0.002  0.858
  0.000  0.000  0.361  0.560  0.079
  0.970  0.030  0.000  0.000  0.000
  0.000  0.000  0.499  0.438  0.063
    occupations:
  0.141 -0.000 -0.000  0.000  0.000
 -0.000  0.367 -0.000  0.000  0.000
 -0.000 -0.000  0.367  0.000  0.000
  0.000  0.000  0.000  0.141 -0.000
  0.000  0.000  0.000 -0.000  0.367
atomic mag. moment =   3.59388
N of occupied +U levels =    6.360948
 --- exit write_ns ---

     RESET ns to initial values (iter <= mixing_fixed_ns)

 --- in v_hubbard ---
Hubbard energy   -0.0000
 -------

     total cpu time spent up to now is       21.2 secs

     total energy              =    -382.01632763 Ry
     estimated scf accuracy    <       0.10251674 Ry

     total magnetization       =     4.00 Bohr mag/cell
     absolute magnetization    =     4.01 Bohr mag/cell

     iteration #  6     ecut=   800.00 Ry     beta= 0.30
     Davidson diagonalization with overlap
     ethr =  2.23E-04,  avg # of iterations =  2.8
 --- enter write_ns ---
 LDA+U parameters:
U( 1)     =  5.00000000
atom    1   Tr[ns(na)] (up, down, total) =   4.98330  1.35064  6.33393
   spin  1
    eigenvalues: 
  0.996  0.996  0.996  0.998  0.998
    eigenvectors:
  0.000  0.000  0.000  0.004  0.996
  0.125  0.012  0.863  0.000  0.000
  0.392  0.504  0.104  0.000  0.000
  0.000  0.000  0.000  0.996  0.004
  0.483  0.484  0.033  0.000  0.000
    occupations:
  0.998 -0.000 -0.000  0.000  0.000
 -0.000  0.996 -0.000  0.000  0.000
 -0.000 -0.000  0.996  0.000  0.000
  0.000  0.000  0.000  0.998 -0.000
  0.000  0.000  0.000 -0.000  0.996
   spin  2
    eigenvalues: 
  0.132  0.132  0.362  0.362  0.362
    eigenvectors:
  0.840  0.160  0.000  0.000  0.000
  0.000  0.000  0.140  0.000  0.860
  0.000  0.000  0.361  0.580  0.059
  0.160  0.840  0.000  0.000  0.000
  0.000  0.000  0.499  0.420  0.080
    occupations:
  0.132 -0.000 -0.000  0.000  0.000
 -0.000  0.362 -0.000  0.000  0.000
 -0.000 -0.000  0.362  0.000  0.000
  0.000  0.000  0.000  0.132 -0.000
  0.000  0.000  0.000 -0.000  0.362
atomic mag. moment =   3.63266
N of occupied +U levels =    6.333934
 --- exit write_ns ---

     RESET ns to initial values (iter <= mixing_fixed_ns)

 --- in v_hubbard ---
Hubbard energy   -0.0000
 -------

     total cpu time spent up to now is       23.6 secs

     total energy              =    -382.01784174 Ry
     estimated scf accuracy    <       0.01503210 Ry

     total magnetization       =     4.00 Bohr mag/cell
     absolute magnetization    =     4.01 Bohr mag/cell

     iteration #  7     ecut=   800.00 Ry     beta= 0.30
     Davidson diagonalization with overlap
     ethr =  3.27E-05,  avg # of iterations =  4.6
 --- enter write_ns ---
 LDA+U parameters:
U( 1)     =  5.00000000
atom    1   Tr[ns(na)] (up, down, total) =   4.98292  1.33368  6.31659
   spin  1
    eigenvalues: 
  0.996  0.996  0.996  0.998  0.998
    eigenvectors:
  0.000  0.000  0.000  0.006  0.994
  0.119  0.025  0.856  0.000  0.000
  0.344  0.537  0.118  0.000  0.000
  0.000  0.000  0.000  0.994  0.006
  0.537  0.437  0.026  0.000  0.000
    occupations:
  0.998 -0.000 -0.000  0.000  0.000
 -0.000  0.996 -0.000  0.000  0.000
 -0.000 -0.000  0.996  0.000  0.000
  0.000  0.000  0.000  0.998 -0.000
  0.000  0.000  0.000 -0.000  0.996
   spin  2
    eigenvalues: 
  0.127  0.127  0.360  0.360  0.360
    eigenvectors:
  0.029  0.971  0.000  0.000  0.000
  0.000  0.000  0.135  0.003  0.862
  0.000  0.000  0.382  0.535  0.083
  0.971  0.029  0.000  0.000  0.000
  0.000  0.000  0.483  0.462  0.055
    occupations:
  0.127 -0.000 -0.000  0.000  0.000
 -0.000  0.360 -0.000  0.000  0.000
 -0.000 -0.000  0.360  0.000  0.000
  0.000  0.000  0.000  0.127 -0.000
  0.000  0.000  0.000 -0.000  0.360
atomic mag. moment =   3.64924
N of occupied +U levels =    6.316592
 --- exit write_ns ---

     RESET ns to initial values (iter <= mixing_fixed_ns)

 --- in v_hubbard ---
Hubbard energy   -0.0000
 -------

     total cpu time spent up to now is       26.4 secs

     total energy              =    -382.02047120 Ry
     estimated scf accuracy    <       0.00085407 Ry

     total magnetization       =     4.00 Bohr mag/cell
     absolute magnetization    =     4.01 Bohr mag/cell

     iteration #  8     ecut=   800.00 Ry     beta= 0.30
     Davidson diagonalization with overlap
     ethr =  1.86E-06,  avg # of iterations =  6.1
 --- enter write_ns ---
 LDA+U parameters:
U( 1)     =  5.00000000
atom    1   Tr[ns(na)] (up, down, total) =   4.98199  1.33095  6.31293
   spin  1
    eigenvalues: 
  0.996  0.996  0.996  0.998  0.998
    eigenvectors:
  0.000  0.000  0.000  0.015  0.985
  0.119  0.009  0.872  0.000  0.000
  0.362  0.549  0.088  0.000  0.000
  0.000  0.000  0.000  0.985  0.015
  0.519  0.442  0.039  0.000  0.000
    occupations:
  0.998 -0.000 -0.000  0.000  0.000
 -0.000  0.996 -0.000  0.000  0.000
 -0.000 -0.000  0.996  0.000  0.000
  0.000  0.000  0.000  0.998 -0.000
  0.000  0.000  0.000 -0.000  0.996
   spin  2
    eigenvalues: 
  0.126  0.126  0.359  0.359  0.359
    eigenvectors:
  0.161  0.839  0.000  0.000  0.000
  0.000  0.000  0.133  0.000  0.867
  0.000  0.000  0.320  0.638  0.042
  0.839  0.161  0.000  0.000  0.000
  0.000  0.000  0.548  0.362  0.090
    occupations:
  0.126 -0.000 -0.000  0.000  0.000
 -0.000  0.359 -0.000  0.000  0.000
 -0.000 -0.000  0.359  0.000  0.000
  0.000  0.000  0.000  0.126 -0.000
  0.000  0.000  0.000 -0.000  0.359
atomic mag. moment =   3.65104
N of occupied +U levels =    6.312932
 --- exit write_ns ---

     RESET ns to initial values (iter <= mixing_fixed_ns)

 --- in v_hubbard ---
Hubbard energy   -0.0000
 -------

     total cpu time spent up to now is       29.6 secs

     total energy              =    -382.02057834 Ry
     estimated scf accuracy    <       0.00027014 Ry

     total magnetization       =     4.00 Bohr mag/cell
     absolute magnetization    =     4.01 Bohr mag/cell

     iteration #  9     ecut=   800.00 Ry     beta= 0.30
     Davidson diagonalization with overlap
     ethr =  5.87E-07,  avg # of iterations =  2.4
 --- enter write_ns ---
 LDA+U parameters:
U( 1)     =  5.00000000
atom    1   Tr[ns(na)] (up, down, total) =   4.98212  1.32935  6.31147
   spin  1
    eigenvalues: 
  0.996  0.996  0.996  0.998  0.998
    eigenvectors:
  0.000  0.000  0.000  0.247  0.753
  0.103  0.001  0.896  0.000  0.000
  0.370  0.577  0.054  0.000  0.000
  0.000  0.000  0.000  0.753  0.247
  0.527  0.422  0.050  0.000  0.000
    occupations:
  0.998 -0.000 -0.000  0.000  0.000
 -0.000  0.996 -0.000  0.000  0.000
 -0.000 -0.000  0.996  0.000  0.000
  0.000  0.000  0.000  0.998 -0.000
  0.000  0.000  0.000 -0.000  0.996
   spin  2
    eigenvalues: 
  0.126  0.126  0.359  0.359  0.359
    eigenvectors:
  0.021  0.979  0.000  0.000  0.000
  0.000  0.000  0.128  0.006  0.866
  0.000  0.000  0.384  0.527  0.089
  0.979  0.021  0.000  0.000  0.000
  0.000  0.000  0.488  0.467  0.045
    occupations:
  0.126 -0.000 -0.000  0.000  0.000
 -0.000  0.359 -0.000  0.000  0.000
 -0.000 -0.000  0.359  0.000  0.000
  0.000  0.000  0.000  0.126 -0.000
  0.000  0.000  0.000 -0.000  0.359
atomic mag. moment =   3.65276
N of occupied +U levels =    6.311473
 --- exit write_ns ---

     RESET ns to initial values (iter <= mixing_fixed_ns)

 --- in v_hubbard ---
Hubbard energy   -0.0000
 -------

     total cpu time spent up to now is       32.1 secs

     total energy              =    -382.02066480 Ry
     estimated scf accuracy    <       0.00009904 Ry

     total magnetization       =     4.00 Bohr mag/cell
     absolute magnetization    =     4.01 Bohr mag/cell

     iteration # 10     ecut=   800.00 Ry     beta= 0.30
     Davidson diagonalization with overlap
     ethr =  2.15E-07,  avg # of iterations =  2.4
 --- enter write_ns ---
 LDA+U parameters:
U( 1)     =  5.00000000
atom    1   Tr[ns(na)] (up, down, total) =   4.98234  1.33151  6.31384
   spin  1
    eigenvalues: 
  0.996  0.996  0.996  0.998  0.998
    eigenvectors:
  0.000  0.000  0.000  0.012  0.988
  0.108  0.001  0.891  0.000  0.000
  0.364  0.579  0.056  0.000  0.000
  0.000  0.000  0.000  0.988  0.012
  0.528  0.419  0.052  0.000  0.000
    occupations:
  0.998 -0.000 -0.000  0.000  0.000
 -0.000  0.996 -0.000  0.000  0.000
 -0.000 -0.000  0.996  0.000  0.000
  0.000  0.000  0.000  0.998 -0.000
  0.000  0.000  0.000 -0.000  0.996
   spin  2
    eigenvalues: 
  0.127  0.127  0.359  0.359  0.359
    eigenvectors:
  0.002  0.998  0.000  0.000  0.000
  0.000  0.000  0.130  0.004  0.866
  0.000  0.000  0.372  0.547  0.081
  0.998  0.002  0.000  0.000  0.000
  0.000  0.000  0.497  0.450  0.053
    occupations:
  0.127 -0.000 -0.000  0.000  0.000
 -0.000  0.359 -0.000  0.000  0.000
 -0.000 -0.000  0.359  0.000  0.000
  0.000  0.000  0.000  0.127 -0.000
  0.000  0.000  0.000 -0.000  0.359
atomic mag. moment =   3.65083
N of occupied +U levels =    6.313844
 --- exit write_ns ---

     RESET ns to initial values (iter <= mixing_fixed_ns)

 --- in v_hubbard ---
Hubbard energy   -0.0000
 -------

     total cpu time spent up to now is       34.9 secs

     total energy              =    -382.02068585 Ry
     estimated scf accuracy    <       0.00003714 Ry

     total magnetization       =     4.00 Bohr mag/cell
     absolute magnetization    =     4.01 Bohr mag/cell

     iteration # 11     ecut=   800.00 Ry     beta= 0.30
     Davidson diagonalization with overlap
     ethr =  8.07E-08,  avg # of iterations =  2.1
 --- enter write_ns ---
 LDA+U parameters:
U( 1)     =  5.00000000
atom    1   Tr[ns(na)] (up, down, total) =   4.98221  1.33028  6.31250
   spin  1
    eigenvalues: 
  0.996  0.996  0.996  0.998  0.998
    eigenvectors:
  0.000  0.000  0.000  0.001  0.999
  0.121  0.011  0.867  0.000  0.000
  0.319  0.591  0.090  0.000  0.000
  0.000  0.000  0.000  0.999  0.001
  0.559  0.398  0.043  0.000  0.000
    occupations:
  0.998 -0.000 -0.000  0.000  0.000
 -0.000  0.996 -0.000  0.000  0.000
 -0.000 -0.000  0.996  0.000  0.000
  0.000  0.000  0.000  0.998 -0.000
  0.000  0.000  0.000 -0.000  0.996
   spin  2
    eigenvalues: 
  0.126  0.126  0.359  0.359  0.359
    eigenvectors:
  0.001  0.999  0.000  0.000  0.000
  0.000  0.000  0.130  0.006  0.863
  0.000  0.000  0.323  0.595  0.082
  0.999  0.001  0.000  0.000  0.000
  0.000  0.000  0.547  0.399  0.054
    occupations:
  0.126 -0.000 -0.000  0.000  0.000
 -0.000  0.359 -0.000  0.000  0.000
 -0.000 -0.000  0.359  0.000  0.000
  0.000  0.000  0.000  0.126 -0.000
  0.000  0.000  0.000 -0.000  0.359
atomic mag. moment =   3.65193
N of occupied +U levels =    6.312498
 --- exit write_ns ---

     RESET ns to initial values (iter <= mixing_fixed_ns)

 --- in v_hubbard ---
Hubbard energy   -0.0000
 -------

     total cpu time spent up to now is       37.4 secs

     total energy              =    -382.02069033 Ry
     estimated scf accuracy    <       0.00000639 Ry

     total magnetization       =     4.00 Bohr mag/cell
     absolute magnetization    =     4.01 Bohr mag/cell

     iteration # 12     ecut=   800.00 Ry     beta= 0.30
     Davidson diagonalization with overlap
     ethr =  1.39E-08,  avg # of iterations =  2.9
 --- enter write_ns ---
 LDA+U parameters:
U( 1)     =  5.00000000
atom    1   Tr[ns(na)] (up, down, total) =   4.98210  1.32978  6.31188
   spin  1
    eigenvalues: 
  0.996  0.996  0.996  0.998  0.998
    eigenvectors:
  0.000  0.000  0.000  0.010  0.990
  0.119  0.014  0.867  0.000  0.000
  0.335  0.568  0.097  0.000  0.000
  0.000  0.000  0.000  0.990  0.010
  0.546  0.417  0.036  0.000  0.000
    occupations:
  0.998 -0.000 -0.000  0.000  0.000
 -0.000  0.996 -0.000  0.000  0.000
 -0.000 -0.000  0.996  0.000  0.000
  0.000  0.000  0.000  0.998 -0.000
  0.000  0.000  0.000 -0.000  0.996
   spin  2
    eigenvalues: 
  0.126  0.126  0.359  0.359  0.359
    eigenvectors:
  0.011  0.989  0.000  0.000  0.000
  0.000  0.000  0.130  0.000  0.870
  0.000  0.000  0.336  0.608  0.056
  0.989  0.011  0.000  0.000  0.000
  0.000  0.000  0.535  0.391  0.074
    occupations:
  0.126 -0.000 -0.000  0.000  0.000
 -0.000  0.359 -0.000  0.000  0.000
 -0.000 -0.000  0.359  0.000  0.000
  0.000  0.000  0.000  0.126 -0.000
  0.000  0.000  0.000 -0.000  0.359
atomic mag. moment =   3.65232
N of occupied +U levels =    6.311883
 --- exit write_ns ---

     RESET ns to initial values (iter <= mixing_fixed_ns)

 --- in v_hubbard ---
Hubbard energy   -0.0000
 -------

     total cpu time spent up to now is       40.3 secs

     total energy              =    -382.02069164 Ry
     estimated scf accuracy    <       0.00000172 Ry

     total magnetization       =     4.00 Bohr mag/cell
     absolute magnetization    =     4.01 Bohr mag/cell

     iteration # 13     ecut=   800.00 Ry     beta= 0.30
     Davidson diagonalization with overlap
     ethr =  3.75E-09,  avg # of iterations =  3.0
 --- enter write_ns ---
 LDA+U parameters:
U( 1)     =  5.00000000
atom    1   Tr[ns(na)] (up, down, total) =   4.98217  1.33031  6.31248
   spin  1
    eigenvalues: 
  0.996  0.996  0.996  0.998  0.998
    eigenvectors:
  0.000  0.000  0.000  0.000  1.000
  0.117  0.011  0.872  0.000  0.000
  0.343  0.566  0.090  0.000  0.000
  0.000  0.000  0.000  1.000  0.000
  0.540  0.422  0.038  0.000  0.000
    occupations:
  0.998 -0.000 -0.000  0.000  0.000
 -0.000  0.996 -0.000  0.000  0.000
 -0.000 -0.000  0.996  0.000  0.000
  0.000  0.000  0.000  0.998 -0.000
  0.000  0.000  0.000 -0.000  0.996
   spin  2
    eigenvalues: 
  0.126  0.126  0.359  0.359  0.359
    eigenvectors:
  0.002  0.998  0.000  0.000  0.000
  0.000  0.000  0.150  0.057  0.793
  0.000  0.000  0.304  0.510  0.186
  0.998  0.002  0.000  0.000  0.000
  0.000  0.000  0.546  0.433  0.021
    occupations:
  0.126 -0.000 -0.000  0.000  0.000
 -0.000  0.359 -0.000  0.000  0.000
 -0.000 -0.000  0.359  0.000  0.000
  0.000  0.000  0.000  0.126 -0.000
  0.000  0.000  0.000 -0.000  0.359
atomic mag. moment =   3.65186
N of occupied +U levels =    6.312480
 --- exit write_ns ---

     RESET ns to initial values (iter <= mixing_fixed_ns)

 --- in v_hubbard ---
Hubbard energy   -0.0000
 -------

     total cpu time spent up to now is       43.4 secs

     total energy              =    -382.02069226 Ry
     estimated scf accuracy    <       0.00000074 Ry

     total magnetization       =     4.00 Bohr mag/cell
     absolute magnetization    =     4.01 Bohr mag/cell

     iteration # 14     ecut=   800.00 Ry     beta= 0.30
     Davidson diagonalization with overlap
     ethr =  1.61E-09,  avg # of iterations =  2.0
 --- enter write_ns ---
 LDA+U parameters:
U( 1)     =  5.00000000
atom    1   Tr[ns(na)] (up, down, total) =   4.98216  1.33017  6.31233
   spin  1
    eigenvalues: 
  0.996  0.996  0.996  0.998  0.998
    eigenvectors:
  0.000  0.000  0.000  0.004  0.996
  0.115  0.001  0.883  0.000  0.000
  0.375  0.563  0.062  0.000  0.000
  0.000  0.000  0.000  0.996  0.004
  0.510  0.436  0.054  0.000  0.000
    occupations:
  0.998 -0.000 -0.000  0.000  0.000
 -0.000  0.996 -0.000  0.000  0.000
 -0.000 -0.000  0.996  0.000  0.000
  0.000  0.000  0.000  0.998 -0.000
  0.000  0.000  0.000 -0.000  0.996
   spin  2
    eigenvalues: 
  0.126  0.126  0.359  0.359  0.359
    eigenvectors:
  0.072  0.928  0.000  0.000  0.000
  0.000  0.000  0.138  0.028  0.834
  0.000  0.000  0.335  0.528  0.137
  0.928  0.072  0.000  0.000  0.000
  0.000  0.000  0.526  0.444  0.030
    occupations:
  0.126 -0.000 -0.000  0.000  0.000
 -0.000  0.359 -0.000  0.000  0.000
 -0.000 -0.000  0.359  0.000  0.000
  0.000  0.000  0.000  0.126 -0.000
  0.000  0.000  0.000 -0.000  0.359
atomic mag. moment =   3.65198
N of occupied +U levels =    6.312329
 --- exit write_ns ---

     RESET ns to initial values (iter <= mixing_fixed_ns)

 --- in v_hubbard ---
Hubbard energy   -0.0000
 -------

     total cpu time spent up to now is       45.8 secs

     total energy              =    -382.02069236 Ry
     estimated scf accuracy    <       0.00000003 Ry

     total magnetization       =     4.00 Bohr mag/cell
     absolute magnetization    =     4.01 Bohr mag/cell

     iteration # 15     ecut=   800.00 Ry     beta= 0.30
     Davidson diagonalization with overlap
     ethr =  6.13E-11,  avg # of iterations =  4.1
 --- enter write_ns ---
 LDA+U parameters:
U( 1)     =  5.00000000
atom    1   Tr[ns(na)] (up, down, total) =   4.98214  1.33014  6.31229
   spin  1
    eigenvalues: 
  0.996  0.996  0.996  0.998  0.998
    eigenvectors:
  0.000  0.000  0.000  0.007  0.993
  0.113  0.003  0.884  0.000  0.000
  0.364  0.570  0.066  0.000  0.000
  0.000  0.000  0.000  0.993  0.007
  0.524  0.427  0.049  0.000  0.000
    occupations:
  0.998 -0.000 -0.000  0.000  0.000
 -0.000  0.996 -0.000  0.000  0.000
 -0.000 -0.000  0.996  0.000  0.000
  0.000  0.000  0.000  0.998 -0.000
  0.000  0.000  0.000 -0.000  0.996
   spin  2
    eigenvalues: 
  0.126  0.126  0.359  0.359  0.359
    eigenvectors:
  0.007  0.993  0.000  0.000  0.000
  0.000  0.000  0.133  0.034  0.832
  0.000  0.000  0.326  0.532  0.142
  0.993  0.007  0.000  0.000  0.000
  0.000  0.000  0.540  0.434  0.026
    occupations:
  0.126 -0.000 -0.000  0.000  0.000
 -0.000  0.359 -0.000  0.000  0.000
 -0.000 -0.000  0.359  0.000  0.000
  0.000  0.000  0.000  0.126 -0.000
  0.000  0.000  0.000 -0.000  0.359
atomic mag. moment =   3.65200
N of occupied +U levels =    6.312285
 --- exit write_ns ---

     RESET ns to initial values (iter <= mixing_fixed_ns)

 --- in v_hubbard ---
Hubbard energy   -0.0000
 -------

     total cpu time spent up to now is       49.0 secs

     total energy              =    -382.02069237 Ry
     estimated scf accuracy    <       0.00000002 Ry

     total magnetization       =     4.00 Bohr mag/cell
     absolute magnetization    =     4.01 Bohr mag/cell

     iteration # 16     ecut=   800.00 Ry     beta= 0.30
     Davidson diagonalization with overlap
     ethr =  4.00E-11,  avg # of iterations =  1.6
 --- enter write_ns ---
 LDA+U parameters:
U( 1)     =  5.00000000
atom    1   Tr[ns(na)] (up, down, total) =   4.98215  1.33015  6.31229
   spin  1
    eigenvalues: 
  0.996  0.996  0.996  0.998  0.998
    eigenvectors:
  0.000  0.000  0.000  0.000  1.000
  0.119  0.000  0.881  0.000  0.000
  0.385  0.565  0.049  0.000  0.000
  0.000  0.000  0.000  1.000  0.000
  0.496  0.435  0.070  0.000  0.000
    occupations:
  0.998 -0.000 -0.000  0.000  0.000
 -0.000  0.996 -0.000  0.000  0.000
 -0.000 -0.000  0.996  0.000  0.000
  0.000  0.000  0.000  0.998 -0.000
  0.000  0.000  0.000 -0.000  0.996
   spin  2
    eigenvalues: 
  0.126  0.126  0.359  0.359  0.359
    eigenvectors:
  0.017  0.983  0.000  0.000  0.000
  0.000  0.000  0.140  0.061  0.799
  0.000  0.000  0.310  0.506  0.185
  0.983  0.017  0.000  0.000  0.000
  0.000  0.000  0.550  0.434  0.017
    occupations:
  0.126 -0.000 -0.000  0.000  0.000
 -0.000  0.359 -0.000  0.000  0.000
 -0.000 -0.000  0.359  0.000  0.000
  0.000  0.000  0.000  0.126 -0.000
  0.000  0.000  0.000 -0.000  0.359
atomic mag. moment =   3.65200
N of occupied +U levels =    6.312294
 --- exit write_ns ---

     RESET ns to initial values (iter <= mixing_fixed_ns)

 --- in v_hubbard ---
Hubbard energy   -0.0000
 -------

     total cpu time spent up to now is       51.4 secs

     total energy              =    -382.02069238 Ry
     estimated scf accuracy    <          3.7E-09 Ry

     total magnetization       =     4.00 Bohr mag/cell
     absolute magnetization    =     4.01 Bohr mag/cell

     iteration # 17     ecut=   800.00 Ry     beta= 0.30
     Davidson diagonalization with overlap
     ethr =  8.10E-12,  avg # of iterations =  2.0
 --- enter write_ns ---
 LDA+U parameters:
U( 1)     =  5.00000000
atom    1   Tr[ns(na)] (up, down, total) =   4.98215  1.33015  6.31230
   spin  1
    eigenvalues: 
  0.996  0.996  0.996  0.998  0.998
    eigenvectors:
  0.000  0.000  0.000  0.004  0.996
  0.123  0.024  0.853  0.000  0.000
  0.364  0.514  0.122  0.000  0.000
  0.000  0.000  0.000  0.996  0.004
  0.513  0.462  0.025  0.000  0.000
    occupations:
  0.998 -0.000 -0.000  0.000  0.000
 -0.000  0.996 -0.000  0.000  0.000
 -0.000 -0.000  0.996  0.000  0.000
  0.000  0.000  0.000  0.998 -0.000
  0.000  0.000  0.000 -0.000  0.996
   spin  2
    eigenvalues: 
  0.126  0.126  0.359  0.359  0.359
    eigenvectors:
  0.000  1.000  0.000  0.000  0.000
  0.000  0.000  0.133  0.001  0.866
  0.000  0.000  0.347  0.586  0.066
  1.000  0.000  0.000  0.000  0.000
  0.000  0.000  0.520  0.413  0.068
    occupations:
  0.126 -0.000 -0.000  0.000  0.000
 -0.000  0.359 -0.000  0.000  0.000
 -0.000 -0.000  0.359  0.000  0.000
  0.000  0.000  0.000  0.126 -0.000
  0.000  0.000  0.000 -0.000  0.359
atomic mag. moment =   3.65200
N of occupied +U levels =    6.312302
 --- exit write_ns ---

     RESET ns to initial values (iter <= mixing_fixed_ns)

 --- in v_hubbard ---
Hubbard energy   -0.0000
 -------

     total cpu time spent up to now is       53.8 secs

     total energy              =    -382.02069238 Ry
     estimated scf accuracy    <          8.9E-10 Ry

     total magnetization       =     4.00 Bohr mag/cell
     absolute magnetization    =     4.01 Bohr mag/cell

     iteration # 18     ecut=   800.00 Ry     beta= 0.30
     Davidson diagonalization with overlap
     ethr =  1.94E-12,  avg # of iterations =  3.5
 --- enter write_ns ---
 LDA+U parameters:
U( 1)     =  5.00000000
atom    1   Tr[ns(na)] (up, down, total) =   4.98215  1.33016  6.31231
   spin  1
    eigenvalues: 
  0.996  0.996  0.996  0.998  0.998
    eigenvectors:
  0.000  0.000  0.000  0.002  0.998
  0.123  0.002  0.875  0.000  0.000
  0.391  0.535  0.074  0.000  0.000
  0.000  0.000  0.000  0.998  0.002
  0.486  0.462  0.052  0.000  0.000
    occupations:
  0.998 -0.000 -0.000  0.000  0.000
 -0.000  0.996 -0.000  0.000  0.000
 -0.000 -0.000  0.996  0.000  0.000
  0.000  0.000  0.000  0.998 -0.000
  0.000  0.000  0.000 -0.000  0.996
   spin  2
    eigenvalues: 
  0.126  0.126  0.359  0.359  0.359
    eigenvectors:
  0.002  0.998  0.000  0.000  0.000
  0.000  0.000  0.140  0.012  0.848
  0.000  0.000  0.354  0.537  0.109
  0.998  0.002  0.000  0.000  0.000
  0.000  0.000  0.506  0.451  0.043
    occupations:
  0.126 -0.000 -0.000  0.000  0.000
 -0.000  0.359 -0.000  0.000  0.000
 -0.000 -0.000  0.359  0.000  0.000
  0.000  0.000  0.000  0.126 -0.000
  0.000  0.000  0.000 -0.000  0.359
atomic mag. moment =   3.65199
N of occupied +U levels =    6.312314
 --- exit write_ns ---

     RESET ns to initial values (iter <= mixing_fixed_ns)

 --- in v_hubbard ---
Hubbard energy   -0.0000
 -------

     total cpu time spent up to now is       56.8 secs

     total energy              =    -382.02069238 Ry
     estimated scf accuracy    <          9.9E-10 Ry

     total magnetization       =     4.00 Bohr mag/cell
     absolute magnetization    =     4.01 Bohr mag/cell

     iteration # 19     ecut=   800.00 Ry     beta= 0.30
     Davidson diagonalization with overlap
     ethr =  1.94E-12,  avg # of iterations =  2.0
 --- enter write_ns ---
 LDA+U parameters:
U( 1)     =  5.00000000
atom    1   Tr[ns(na)] (up, down, total) =   4.98215  1.33016  6.31231
   spin  1
    eigenvalues: 
  0.996  0.996  0.996  0.998  0.998
    eigenvectors:
  0.000  0.000  0.000  0.014  0.986
  0.115  0.010  0.875  0.000  0.000
  0.376  0.534  0.089  0.000  0.000
  0.000  0.000  0.000  0.986  0.014
  0.508  0.456  0.035  0.000  0.000
    occupations:
  0.998 -0.000 -0.000  0.000  0.000
 -0.000  0.996 -0.000  0.000  0.000
 -0.000 -0.000  0.996  0.000  0.000
  0.000  0.000  0.000  0.998 -0.000
  0.000  0.000  0.000 -0.000  0.996
   spin  2
    eigenvalues: 
  0.126  0.126  0.359  0.359  0.359
    eigenvectors:
  0.018  0.982  0.000  0.000  0.000
  0.000  0.000  0.156  0.006  0.838
  0.000  0.000  0.359  0.538  0.103
  0.982  0.018  0.000  0.000  0.000
  0.000  0.000  0.485  0.455  0.059
    occupations:
  0.126 -0.000 -0.000  0.000  0.000
 -0.000  0.359 -0.000  0.000  0.000
 -0.000 -0.000  0.359  0.000  0.000
  0.000  0.000  0.000  0.126 -0.000
  0.000  0.000  0.000 -0.000  0.359
atomic mag. moment =   3.65199
N of occupied +U levels =    6.312307
 --- exit write_ns ---

     RESET ns to initial values (iter <= mixing_fixed_ns)

 --- in v_hubbard ---
Hubbard energy   -0.0000
 -------
 
     Magnetic moment per site:
     atom:    1    charge:   13.4796    magn:    3.5163    constr:    0.0000
     atom:    2    charge:    0.2554    magn:   -0.0006    constr:    0.0000
     atom:    3    charge:    0.2554    magn:   -0.0006    constr:    0.0000
     atom:    4    charge:    0.2554    magn:   -0.0006    constr:    0.0000
     atom:    5    charge:    5.8465    magn:   -0.0000    constr:    0.0000
     atom:    6    charge:    5.8507    magn:    0.0582    constr:    0.0000
     atom:    7    charge:    5.8507    magn:    0.0582    constr:    0.0000
     atom:    8    charge:    5.8507    magn:    0.0582    constr:    0.0000

     total cpu time spent up to now is       59.3 secs

     End of self-consistent calculation

 ------ SPIN UP ------------


          k = 0.0000 0.0000 0.0000 (192431 PWs)   bands (ev):

   -79.2325 -44.8397 -44.8397 -44.8397 -10.0186  -8.8073  -8.8073  -8.3935
     3.2607   3.2607   3.2607   4.0529   4.0529   4.0529   4.6287   4.6287
     6.0347   6.0347   6.0347   6.0451   6.0451   6.0451   7.4145   7.4145
     7.4145  11.9994  16.7717  17.7658  17.7658  17.7895  17.7895  17.7895

     occupation numbers 
     1.0000   1.0000   1.0000   1.0000   1.0000   1.0000   1.0000   1.0000
     1.0000   1.0000   1.0000   1.0000   1.0000   1.0000   1.0000   1.0000
     1.0000   1.0000   1.0000   1.0000   1.0000   1.0000   1.0000   1.0000
     1.0000   0.0000   0.0000   0.0000   0.0000   0.0000   0.0000   0.0000

          k = 0.0000 0.0000-0.5000 (192616 PWs)   bands (ev):

   -79.2325 -44.8404 -44.8396 -44.8396  -9.4028  -9.2009  -8.7608  -8.3583
     2.0675   3.0502   3.0502   4.0692   4.3563   4.3563   4.6320   4.7660
     5.2874   5.4461   5.4461   5.6424   6.5974   6.5974   7.1321   7.1321
     7.5234  15.5063  15.6360  18.8024  19.0827  19.0827  19.4465  19.9021

     occupation numbers 
     1.0000   1.0000   1.0000   1.0000   1.0000   1.0000   1.0000   1.0000
     1.0000   1.0000   1.0000   1.0000   1.0000   1.0000   1.0000   1.0000
     1.0000   1.0000   1.0000   1.0000   1.0000   1.0000   1.0000   1.0000
     1.0000   0.0000   0.0000   0.0000   0.0000   0.0000   0.0000   0.0000

          k = 0.0000-0.5000-0.5000 (192516 PWs)   bands (ev):

   -79.2325 -44.8404 -44.8404 -44.8396  -9.0410  -8.8061  -8.8061  -8.6924
     2.0407   2.1615   2.3267   3.2621   3.2621   3.9575   3.9575   5.2660
     5.4837   5.9545   6.2425   6.5736   6.5736   6.7538   6.7888   6.7888
     9.6921  16.9243  16.9243  16.9357  17.1694  19.0928  19.3983  20.0960

     occupation numbers 
     1.0000   1.0000   1.0000   1.0000   1.0000   1.0000   1.0000   1.0000
     1.0000   1.0000   1.0000   1.0000   1.0000   1.0000   1.0000   1.0000
     1.0000   1.0000   1.0000   1.0000   1.0000   1.0000   1.0000   1.0000
     1.0000   0.0000   0.0000   0.0000   0.0000   0.0000   0.0000   0.0000

          k =-0.5000-0.5000-0.5000 (192672 PWs)   bands (ev):

   -79.2325 -44.8403 -44.8403 -44.8403  -8.7415  -8.7415  -8.7415  -8.6226
     1.8102   1.8102   1.8102   2.0404   2.0404   2.3216   5.1561   5.1561
     5.1561   6.7497   6.7497   6.7497   7.3059   7.3059   7.3059   9.6878
     9.6878  15.3238  15.3238  15.3238  15.4911  19.6188  20.4479  20.4479

     occupation numbers 
     1.0000   1.0000   1.0000   1.0000   1.0000   1.0000   1.0000   1.0000
     1.0000   1.0000   1.0000   1.0000   1.0000   1.0000   1.0000   1.0000
     1.0000   1.0000   1.0000   1.0000   1.0000   1.0000   1.0000   1.0000
     1.0000   0.0000   0.0000   0.0000   0.0000   0.0000   0.0000   0.0000

 ------ SPIN DOWN ----------


          k = 0.0000 0.0000 0.0000 (192431 PWs)   bands (ev):

   -74.5928 -40.2654 -40.2654 -40.2654  -9.9249  -8.3626  -8.3402  -8.3402
     3.3736   3.3736   3.3736   6.1215   6.1215   6.1215   6.1549   6.1549
     6.1549   7.4937   7.4937   7.4937   7.5423  12.2047  12.2047  12.2833
    14.2086  14.2086  17.7832  17.7832  17.8022  18.1245  18.3729  18.3729

     occupation numbers 
     1.0000   1.0000   1.0000   1.0000   1.0000   1.0000   1.0000   1.0000
     1.0000   1.0000   1.0000   1.0000   1.0000   1.0000   1.0000   1.0000
     1.0000   1.0000   1.0000   1.0000   1.0000   0.0000   0.0000   0.0000
     0.0000   0.0000   0.0000   0.0000   0.0000   0.0000   0.0000   0.0000

          k = 0.0000 0.0000-0.5000 (192616 PWs)   bands (ev):

   -74.5928 -40.2667 -40.2653 -40.2653  -9.1810  -9.1441  -8.3062  -8.2938
     4.2095   4.4605   4.5331   4.5331   4.6319   4.8475   5.5869   5.7127
     6.4928   6.7267   6.7322   6.7322   8.4110  12.6387  13.0658  14.2229
    14.2736  15.7021  16.4588  18.8053  19.2600  19.2600  19.9630  20.1221

     occupation numbers 
     1.0000   1.0000   1.0000   1.0000   1.0000   1.0000   1.0000   1.0000
     1.0000   1.0000   1.0000   1.0000   1.0000   1.0000   1.0000   1.0000
     1.0000   1.0000   1.0000   1.0000   1.0000   0.0000   0.0000   0.0000
     0.0000   0.0000   0.0000   0.0000   0.0000   0.0000   0.0000   0.0000

          k = 0.0000-0.5000-0.5000 (192516 PWs)   bands (ev):

   -74.5928 -40.2666 -40.2666 -40.2653  -8.7068  -8.6968  -8.6968  -8.6905
     3.4611   3.7615   3.9919   3.9919   5.2002   5.3842   5.4820   5.5066
     6.1421   6.8357   6.8357   6.8364   9.0081  13.0815  13.2224  14.2754
    15.8602  17.1475  17.1475  17.2346  17.3758  19.3965  19.4058  20.3634

     occupation numbers 
     1.0000   1.0000   1.0000   1.0000   1.0000   1.0000   1.0000   1.0000
     1.0000   1.0000   1.0000   1.0000   1.0000   1.0000   1.0000   1.0000
     1.0000   1.0000   1.0000   1.0000   1.0000   0.0000   0.0000   0.0000
     0.0000   0.0000   0.0000   0.0000   0.0000   0.0000   0.0000   0.0000

          k =-0.5000-0.5000-0.5000 (192672 PWs)   bands (ev):

   -74.5928 -40.2666 -40.2666 -40.2666  -8.6314  -8.6314  -8.6314  -8.6230
     2.4094   2.7202   2.8419   2.8419   6.1380   6.1380   6.4534   6.7816
     6.7816   6.8324   6.8324   6.8324   9.2437  13.4490  13.4490  15.4897
    15.5571  15.5571  15.5571  15.8600  15.8600  20.2117  20.5650  20.5650

     occupation numbers 
     1.0000   1.0000   1.0000   1.0000   1.0000   1.0000   1.0000   1.0000
     1.0000   1.0000   1.0000   1.0000   1.0000   1.0000   1.0000   1.0000
     1.0000   1.0000   1.0000   1.0000   1.0000   0.0000   0.0000   0.0000
     0.0000   0.0000   0.0000   0.0000   0.0000   0.0000   0.0000   0.0000

     the spin up/dw Fermi energies are    11.2510   11.2510 ev

!    total energy              =    -382.02069238 Ry
     estimated scf accuracy    <          3.6E-12 Ry
     smearing contrib. (-TS)   =      -0.00000000 Ry
     internal energy E=F+TS    =    -382.02069238 Ry

     The total energy is F=E-TS. E is the sum of the following terms:
     one-electron contribution =    -239.83950724 Ry
     hartree contribution      =     146.91580174 Ry
     xc contribution           =     -58.60899852 Ry
     ewald contribution        =    -230.48798836 Ry
     Hubbard energy            =      -0.00000000 Ry

     total magnetization       =     4.00 Bohr mag/cell
     absolute magnetization    =     4.01 Bohr mag/cell

     convergence has been achieved in  19 iterations

     Forces acting on atoms (cartesian axes, Ry/au):

     atom    1 type  1   force =     0.00000000    0.00000000    0.00000000
     atom    2 type  2   force =     0.00000000    0.00000000   -0.00000000
     atom    3 type  2   force =     0.00000000    0.00000000    0.00000000
     atom    4 type  2   force =     0.00000000    0.00000000   -0.00000000
     atom    5 type  3   force =     0.00000000    0.00000000    0.00000000
     atom    6 type  3   force =     0.00000000    0.00000000    0.00000000
     atom    7 type  3   force =     0.00000000    0.00000000   -0.00000000
     atom    8 type  3   force =     0.00000000    0.00000000    0.00000000
     The non-local contrib.  to forces
     atom    1 type  1   force =     0.00000000    0.00000000    0.00000000
     atom    2 type  2   force =     0.00000000    0.00000000    0.00000000
     atom    3 type  2   force =     0.00000000    0.00000000    0.00000000
     atom    4 type  2   force =     0.00000000    0.00000000   -0.00000000
     atom    5 type  3   force =     0.00000000    0.00000000    0.00000000
     atom    6 type  3   force =     0.00000000   -0.00000000    0.00000000
     atom    7 type  3   force =     0.00000000    0.00000000    0.00000000
     atom    8 type  3   force =     0.00000000    0.00000000    0.00000000
     The ionic contribution  to forces
     atom    1 type  1   force =    -0.00000000   -0.00000000   -0.00000000
     atom    2 type  2   force =    -0.00000000    0.00000000    0.00000000
     atom    3 type  2   force =     0.00000000   -0.00000000    0.00000000
     atom    4 type  2   force =     0.00000000    0.00000000   -0.00000000
     atom    5 type  3   force =     0.00000000    0.00000000    0.00000000
     atom    6 type  3   force =     0.00000000   -0.00000000   -0.00000000
     atom    7 type  3   force =    -0.00000000    0.00000000   -0.00000000
     atom    8 type  3   force =    -0.00000000   -0.00000000    0.00000000
     The local contribution  to forces
     atom    1 type  1   force =     0.00000000    0.00000000    0.00000000
     atom    2 type  2   force =    -0.00000000    0.00000000    0.00000000
     atom    3 type  2   force =     0.00000000   -0.00000000    0.00000000
     atom    4 type  2   force =     0.00000000    0.00000000   -0.00000000
     atom    5 type  3   force =     0.00000000    0.00000000    0.00000000
     atom    6 type  3   force =     0.00000000    0.00000000    0.00000000
     atom    7 type  3   force =     0.00000000    0.00000000    0.00000000
     atom    8 type  3   force =     0.00000000    0.00000000    0.00000000
     The core correction contribution to forces
     atom    1 type  1   force =     0.00000000    0.00000000    0.00000000
     atom    2 type  2   force =     0.00000000    0.00000000    0.00000000
     atom    3 type  2   force =     0.00000000    0.00000000    0.00000000
     atom    4 type  2   force =     0.00000000    0.00000000    0.00000000
     atom    5 type  3   force =     0.00000000    0.00000000    0.00000000
     atom    6 type  3   force =     0.00000000    0.00000000    0.00000000
     atom    7 type  3   force =     0.00000000    0.00000000    0.00000000
     atom    8 type  3   force =     0.00000000    0.00000000    0.00000000
     The Hubbard contrib.    to forces
     atom    1 type  1   force =     0.00000000   -0.00000000   -0.00000000
     atom    2 type  2   force =     0.00000000    0.00000000    0.00000000
     atom    3 type  2   force =     0.00000000    0.00000000    0.00000000
     atom    4 type  2   force =     0.00000000    0.00000000    0.00000000
     atom    5 type  3   force =     0.00000000    0.00000000    0.00000000
     atom    6 type  3   force =     0.00000000    0.00000000    0.00000000
     atom    7 type  3   force =     0.00000000    0.00000000    0.00000000
     atom    8 type  3   force =     0.00000000    0.00000000    0.00000000
     The SCF correction term to forces
     atom    1 type  1   force =     0.00000000   -0.00000000    0.00000000
     atom    2 type  2   force =     0.00000000    0.00000000   -0.00000000
     atom    3 type  2   force =    -0.00000000   -0.00000000   -0.00000000
     atom    4 type  2   force =    -0.00000000    0.00000000    0.00000000
     atom    5 type  3   force =     0.00000000   -0.00000000   -0.00000000
     atom    6 type  3   force =     0.00000000    0.00000000    0.00000000
     atom    7 type  3   force =    -0.00000000   -0.00000000    0.00000000
     atom    8 type  3   force =    -0.00000000    0.00000000    0.00000000

     Total force =     0.000000     Total SCF correction =     0.000000


     Computing stress (Cartesian axis) and pressure

          total   stress  (Ry/bohr**3)                   (kbar)     P=      184.58
   0.00125475   0.00000000   0.00000000          184.58        0.00        0.00
   0.00000000   0.00125475   0.00000000            0.00      184.58        0.00
   0.00000000   0.00000000   0.00125475            0.00        0.00      184.58

     kinetic stress (kbar)  48466.63      0.00      0.00
                                0.00  48466.63      0.00
                                0.00      0.00  48466.63

     local   stress (kbar) -16722.89      0.00      0.00
                                0.00 -16722.89      0.00
                                0.00      0.00 -16722.89

     nonloc. stress (kbar) -18015.72      0.00      0.00
                                0.00 -18015.72      0.00
                                0.00      0.00 -18015.72

     hartree stress (kbar)  14296.49     -0.00      0.00
                               -0.00  14296.49     -0.00
                                0.00     -0.00  14296.49

     exc-cor stress (kbar)  -5418.16      0.00     -0.00
                                0.00  -5418.16      0.00
                               -0.00      0.00  -5418.16

     corecor stress (kbar)      0.00      0.00      0.00
                                0.00      0.00      0.00
                                0.00      0.00      0.00

     ewald   stress (kbar) -22428.97      0.00     -0.00
                                0.00 -22428.97      0.00
                               -0.00      0.00 -22428.97

     hubbard stress (kbar)      7.19      0.00      0.00
                                0.00      7.19      0.00
                                0.00      0.00      7.19

     DFT-D   stress (kbar)      0.00      0.00      0.00
                                0.00      0.00      0.00
                                0.00      0.00      0.00

     XDM     stress (kbar)      0.00      0.00      0.00
                                0.00      0.00      0.00
                                0.00      0.00      0.00

     dft-nl  stress (kbar)      0.00      0.00      0.00
                                0.00      0.00      0.00
                                0.00      0.00      0.00

     TS-vdW  stress (kbar)      0.00      0.00      0.00
                                0.00      0.00      0.00
                                0.00      0.00      0.00



     Writing output data file pwscf_output/pwscf.save/
 
     init_run     :      2.11s CPU      2.40s WALL (       1 calls)
     electrons    :     54.36s CPU     56.88s WALL (       1 calls)
     forces       :      0.27s CPU      0.28s WALL (       1 calls)
     stress       :      0.99s CPU      1.00s WALL (       1 calls)

     Called by init_run:
     wfcinit      :      1.34s CPU      1.47s WALL (       1 calls)
     wfcinit:atom :      0.02s CPU      0.03s WALL (       8 calls)
     wfcinit:wfcr :      1.18s CPU      1.29s WALL (       8 calls)
     potinit      :      0.16s CPU      0.23s WALL (       1 calls)
     hinit0       :      0.09s CPU      0.15s WALL (       1 calls)

     Called by electrons:
     c_bands      :     44.07s CPU     44.53s WALL (      19 calls)
     sum_band     :      7.36s CPU      7.46s WALL (      19 calls)
     v_of_rho     :      2.07s CPU      2.22s WALL (      20 calls)
     v_h          :      0.08s CPU      0.09s WALL (      20 calls)
     v_xc         :      1.99s CPU      2.13s WALL (      20 calls)
     mix_rho      :      0.80s CPU      0.85s WALL (      19 calls)

     Called by c_bands:
     init_us_2    :      0.39s CPU      0.41s WALL (     352 calls)
     cegterg      :     43.16s CPU     43.51s WALL (     152 calls)

     Called by sum_band:
     sum_band:wei :      0.00s CPU      0.00s WALL (      19 calls)
     sum_band:loo :      6.72s CPU      6.78s WALL (      19 calls)
     sum_band:buf :      0.22s CPU      0.22s WALL (     152 calls)
     sum_band:ini :      0.17s CPU      0.17s WALL (     152 calls)

     Called by *egterg:
     cdiaghg      :      2.83s CPU      2.90s WALL (     705 calls)
     cegterg:over :      3.33s CPU      3.35s WALL (     553 calls)
     cegterg:upda :      2.68s CPU      2.70s WALL (     553 calls)
     cegterg:last :      2.59s CPU      2.61s WALL (     330 calls)
     cdiaghg:chol :      0.20s CPU      0.23s WALL (     705 calls)
     cdiaghg:inve :      0.04s CPU      0.04s WALL (     705 calls)
     cdiaghg:para :      0.19s CPU      0.20s WALL (    1410 calls)
     h_psi        :     31.65s CPU     31.99s WALL (     713 calls)
     g_psi        :      0.14s CPU      0.14s WALL (     553 calls)

     Called by h_psi:
     h_psi:calbec :      0.86s CPU      0.86s WALL (     713 calls)
     vloc_psi     :     28.64s CPU     28.93s WALL (     713 calls)
     add_vuspsi   :      1.04s CPU      1.06s WALL (     713 calls)
     vhpsi        :      0.65s CPU      0.66s WALL (     713 calls)

     General routines
     calbec       :      1.44s CPU      1.46s WALL (    1730 calls)
     fft          :      0.94s CPU      1.10s WALL (     389 calls)
     ffts         :      0.08s CPU      0.09s WALL (      38 calls)
     fftw         :     29.48s CPU     29.77s WALL (   31000 calls)
     davcio       :      0.00s CPU      0.00s WALL (       8 calls)
 
     Parallel routines
     fft_scatt_xy :      4.31s CPU      4.35s WALL (   31427 calls)
     fft_scatt_yz :     15.32s CPU     15.61s WALL (   31427 calls)

     Hubbard U routines
     new_ns       :      0.27s CPU      0.28s WALL (      19 calls)
     new_ns       :      0.27s CPU      0.28s WALL (      19 calls)
     vhpsi        :      0.65s CPU      0.66s WALL (     713 calls)
     force_hub    :      0.10s CPU      0.10s WALL (       1 calls)
     stres_hub    :      0.34s CPU      0.34s WALL (       1 calls)
 
     PWSCF        :     58.36s CPU   1m36.63s WALL

 
   This run was terminated on:  11:26:13  22Nov2021            

=------------------------------------------------------------------------------=
   JOB DONE.
=------------------------------------------------------------------------------=
