
     Program PWSCF v.6.7MaX starts on 22Nov2021 at 11:25:44 

     This program is part of the open-source Quantum ESPRESSO suite
     for quantum simulation of materials; please cite
         "P. Giannozzi et al., J. Phys.:Condens. Matter 21 395502 (2009);
         "P. Giannozzi et al., J. Phys.:Condens. Matter 29 465901 (2017);
          URL http://www.quantum-espresso.org", 
     in publications or presentations arising from this work. More details at
     http://www.quantum-espresso.org/quote

     Parallel version (MPI), running on    48 processors

     MPI processes distributed on     1 nodes
     R & G space division:  proc/nbgrp/npool/nimage =      48
     Reading input from scf.in

     Current dimensions of program PWSCF are:
     Max number of different atomic species (ntypx) = 10
     Max number of k-points (npk) =  40000
     Max angular momentum in pseudopotentials (lmaxx) =  3
     Message from routine scan_end:
     No INFO block end statement, possibly corrupted file
     Message from routine scan_end:
     No INFO block end statement, possibly corrupted file
     Message from routine scan_end:
     No INFO block end statement, possibly corrupted file

     IMPORTANT: XC functional enforced from input :
     Exchange-correlation= PBE
                           (   1   4   3   4   0   0   0)
     Any further DFT definition will be discarded
     Please, verify this is what you really want


     Subspace diagonalization in iterative solution of the eigenvalue problem:
     one sub-group per band group will be used
     scalapack distributed-memory algorithm (size of sub-group:  6*  6 procs)

 
     Parallelization info
     --------------------
     sticks:   dense  smooth     PW     G-vecs:    dense   smooth      PW
     Min         336     336     87                32092    32092    4297
     Max         337     337     88                32097    32097    4304
     Sum       16141   16141   4221              1540499  1540499  206437
 


     bravais-lattice index     =            1
     lattice parameter (alat)  =       7.9576  a.u.
     unit-cell volume          =     503.9013 (a.u.)^3
     number of atoms/cell      =            8
     number of atomic types    =            3
     number of electrons       =        46.00 (up:  25.00, down:  21.00)
     number of Kohn-Sham states=           32
     kinetic-energy cutoff     =     800.0000  Ry
     charge density cutoff     =    3200.0000  Ry
     scf convergence threshold =      1.0E-10
     mixing beta               =       0.3000
     number of iterations used =            8  plain     mixing
     Exchange-correlation= PBE
                           (   1   4   3   4   0   0   0)

     celldm(1)=   7.957595  celldm(2)=   0.000000  celldm(3)=   0.000000
     celldm(4)=   0.000000  celldm(5)=   0.000000  celldm(6)=   0.000000

     crystal axes: (cart. coord. in units of alat)
               a(1) = (   1.000000   0.000000   0.000000 )  
               a(2) = (   0.000000   1.000000   0.000000 )  
               a(3) = (   0.000000   0.000000   1.000000 )  

     reciprocal axes: (cart. coord. in units 2 pi/alat)
               b(1) = (  1.000000  0.000000  0.000000 )  
               b(2) = (  0.000000  1.000000  0.000000 )  
               b(3) = (  0.000000  0.000000  1.000000 )  


     PseudoPot. # 1 for Fe read from file:
     /ascldap/users/jptowns/ferropericlase_spintransition/pseudos/Fe.ccECP.upf
     MD5 check sum: 375ee7e2ce333dc2f1485c86089d969e
     Pseudo is Norm-conserving, Zval = 16.0
     Generated by new atomic code, or converted to UPF format
     Using radial grid of 1160 points,  2 beta functions with: 
                l(1) =   1
                l(2) =   2

     PseudoPot. # 2 for Mg read from file:
     /ascldap/users/jptowns/ferropericlase_spintransition/pseudos/Mg.ccECP.upf
     MD5 check sum: 94218cb30fa6b3f6810c07405bb1118c
     Pseudo is Norm-conserving, Zval =  2.0
     Generated by new atomic code, or converted to UPF format
     Using radial grid of 1140 points,  2 beta functions with: 
                l(1) =   0
                l(2) =   2

     PseudoPot. # 3 for O  read from file:
     /ascldap/users/jptowns/ferropericlase_spintransition/pseudos/O.ccECP.upf
     MD5 check sum: f8511452b848d8673c004e477b4fc277
     Pseudo is Norm-conserving, Zval =  6.0
     Generated by new atomic code, or converted to UPF format
     Using radial grid of 1130 points,  1 beta functions with: 
                l(1) =   0

     atomic species   valence    mass     pseudopotential
        Fe            16.00    55.84500     Fe( 1.00)
        Mg             2.00    24.30500     Mg( 1.00)
        O              6.00    15.99900     O ( 1.00)

     Starting magnetic structure 
     atomic species   magnetization
        Fe           0.000
        Mg           0.000
        O            0.000


     Simplified LDA+U calculation (l_max = 2) with parameters (eV):
     atomic species    L          U    alpha       J0     beta
        Fe             2     5.0000   0.0000   0.0000   0.0000



     48 Sym. Ops., with inversion, found


                                    s                        frac. trans.

      isym =  1     identity                                     

 cryst.   s( 1) = (     1          0          0      )
                  (     0          1          0      )
                  (     0          0          1      )

 cart.    s( 1) = (  1.0000000  0.0000000  0.0000000 )
                  (  0.0000000  1.0000000  0.0000000 )
                  (  0.0000000  0.0000000  1.0000000 )


      isym =  2     180 deg rotation - cart. axis [0,0,1]        

 cryst.   s( 2) = (    -1          0          0      )
                  (     0         -1          0      )
                  (     0          0          1      )

 cart.    s( 2) = ( -1.0000000  0.0000000  0.0000000 )
                  (  0.0000000 -1.0000000  0.0000000 )
                  (  0.0000000  0.0000000  1.0000000 )


      isym =  3     180 deg rotation - cart. axis [0,1,0]        

 cryst.   s( 3) = (    -1          0          0      )
                  (     0          1          0      )
                  (     0          0         -1      )

 cart.    s( 3) = ( -1.0000000  0.0000000  0.0000000 )
                  (  0.0000000  1.0000000  0.0000000 )
                  (  0.0000000  0.0000000 -1.0000000 )


      isym =  4     180 deg rotation - cart. axis [1,0,0]        

 cryst.   s( 4) = (     1          0          0      )
                  (     0         -1          0      )
                  (     0          0         -1      )

 cart.    s( 4) = (  1.0000000  0.0000000  0.0000000 )
                  (  0.0000000 -1.0000000  0.0000000 )
                  (  0.0000000  0.0000000 -1.0000000 )


      isym =  5     180 deg rotation - cart. axis [1,1,0]        

 cryst.   s( 5) = (     0          1          0      )
                  (     1          0          0      )
                  (     0          0         -1      )

 cart.    s( 5) = (  0.0000000  1.0000000  0.0000000 )
                  (  1.0000000  0.0000000  0.0000000 )
                  (  0.0000000  0.0000000 -1.0000000 )


      isym =  6     180 deg rotation - cart. axis [1,-1,0]       

 cryst.   s( 6) = (     0         -1          0      )
                  (    -1          0          0      )
                  (     0          0         -1      )

 cart.    s( 6) = (  0.0000000 -1.0000000  0.0000000 )
                  ( -1.0000000  0.0000000  0.0000000 )
                  (  0.0000000  0.0000000 -1.0000000 )


      isym =  7      90 deg rotation - cart. axis [0,0,-1]       

 cryst.   s( 7) = (     0         -1          0      )
                  (     1          0          0      )
                  (     0          0          1      )

 cart.    s( 7) = (  0.0000000  1.0000000  0.0000000 )
                  ( -1.0000000  0.0000000  0.0000000 )
                  (  0.0000000  0.0000000  1.0000000 )


      isym =  8      90 deg rotation - cart. axis [0,0,1]        

 cryst.   s( 8) = (     0          1          0      )
                  (    -1          0          0      )
                  (     0          0          1      )

 cart.    s( 8) = (  0.0000000 -1.0000000  0.0000000 )
                  (  1.0000000  0.0000000  0.0000000 )
                  (  0.0000000  0.0000000  1.0000000 )


      isym =  9     180 deg rotation - cart. axis [1,0,1]        

 cryst.   s( 9) = (     0          0          1      )
                  (     0         -1          0      )
                  (     1          0          0      )

 cart.    s( 9) = (  0.0000000  0.0000000  1.0000000 )
                  (  0.0000000 -1.0000000  0.0000000 )
                  (  1.0000000  0.0000000  0.0000000 )


      isym = 10     180 deg rotation - cart. axis [-1,0,1]       

 cryst.   s(10) = (     0          0         -1      )
                  (     0         -1          0      )
                  (    -1          0          0      )

 cart.    s(10) = (  0.0000000  0.0000000 -1.0000000 )
                  (  0.0000000 -1.0000000  0.0000000 )
                  ( -1.0000000  0.0000000  0.0000000 )


      isym = 11      90 deg rotation - cart. axis [0,1,0]        

 cryst.   s(11) = (     0          0         -1      )
                  (     0          1          0      )
                  (     1          0          0      )

 cart.    s(11) = (  0.0000000  0.0000000  1.0000000 )
                  (  0.0000000  1.0000000  0.0000000 )
                  ( -1.0000000  0.0000000  0.0000000 )


      isym = 12      90 deg rotation - cart. axis [0,-1,0]       

 cryst.   s(12) = (     0          0          1      )
                  (     0          1          0      )
                  (    -1          0          0      )

 cart.    s(12) = (  0.0000000  0.0000000 -1.0000000 )
                  (  0.0000000  1.0000000  0.0000000 )
                  (  1.0000000  0.0000000  0.0000000 )


      isym = 13     180 deg rotation - cart. axis [0,1,1]        

 cryst.   s(13) = (    -1          0          0      )
                  (     0          0          1      )
                  (     0          1          0      )

 cart.    s(13) = ( -1.0000000  0.0000000  0.0000000 )
                  (  0.0000000  0.0000000  1.0000000 )
                  (  0.0000000  1.0000000  0.0000000 )


      isym = 14     180 deg rotation - cart. axis [0,1,-1]       

 cryst.   s(14) = (    -1          0          0      )
                  (     0          0         -1      )
                  (     0         -1          0      )

 cart.    s(14) = ( -1.0000000  0.0000000  0.0000000 )
                  (  0.0000000  0.0000000 -1.0000000 )
                  (  0.0000000 -1.0000000  0.0000000 )


      isym = 15      90 deg rotation - cart. axis [-1,0,0]       

 cryst.   s(15) = (     1          0          0      )
                  (     0          0         -1      )
                  (     0          1          0      )

 cart.    s(15) = (  1.0000000  0.0000000  0.0000000 )
                  (  0.0000000  0.0000000  1.0000000 )
                  (  0.0000000 -1.0000000  0.0000000 )


      isym = 16      90 deg rotation - cart. axis [1,0,0]        

 cryst.   s(16) = (     1          0          0      )
                  (     0          0          1      )
                  (     0         -1          0      )

 cart.    s(16) = (  1.0000000  0.0000000  0.0000000 )
                  (  0.0000000  0.0000000 -1.0000000 )
                  (  0.0000000  1.0000000  0.0000000 )


      isym = 17     120 deg rotation - cart. axis [-1,-1,-1]     

 cryst.   s(17) = (     0          0          1      )
                  (     1          0          0      )
                  (     0          1          0      )

 cart.    s(17) = (  0.0000000  1.0000000  0.0000000 )
                  (  0.0000000  0.0000000  1.0000000 )
                  (  1.0000000  0.0000000  0.0000000 )


      isym = 18     120 deg rotation - cart. axis [-1,1,1]       

 cryst.   s(18) = (     0          0         -1      )
                  (    -1          0          0      )
                  (     0          1          0      )

 cart.    s(18) = (  0.0000000 -1.0000000  0.0000000 )
                  (  0.0000000  0.0000000  1.0000000 )
                  ( -1.0000000  0.0000000  0.0000000 )


      isym = 19     120 deg rotation - cart. axis [1,1,-1]       

 cryst.   s(19) = (     0          0         -1      )
                  (     1          0          0      )
                  (     0         -1          0      )

 cart.    s(19) = (  0.0000000  1.0000000  0.0000000 )
                  (  0.0000000  0.0000000 -1.0000000 )
                  ( -1.0000000  0.0000000  0.0000000 )


      isym = 20     120 deg rotation - cart. axis [1,-1,1]       

 cryst.   s(20) = (     0          0          1      )
                  (    -1          0          0      )
                  (     0         -1          0      )

 cart.    s(20) = (  0.0000000 -1.0000000  0.0000000 )
                  (  0.0000000  0.0000000 -1.0000000 )
                  (  1.0000000  0.0000000  0.0000000 )


      isym = 21     120 deg rotation - cart. axis [1,1,1]        

 cryst.   s(21) = (     0          1          0      )
                  (     0          0          1      )
                  (     1          0          0      )

 cart.    s(21) = (  0.0000000  0.0000000  1.0000000 )
                  (  1.0000000  0.0000000  0.0000000 )
                  (  0.0000000  1.0000000  0.0000000 )


      isym = 22     120 deg rotation - cart. axis [-1,1,-1]      

 cryst.   s(22) = (     0         -1          0      )
                  (     0          0         -1      )
                  (     1          0          0      )

 cart.    s(22) = (  0.0000000  0.0000000  1.0000000 )
                  ( -1.0000000  0.0000000  0.0000000 )
                  (  0.0000000 -1.0000000  0.0000000 )


      isym = 23     120 deg rotation - cart. axis [1,-1,-1]      

 cryst.   s(23) = (     0         -1          0      )
                  (     0          0          1      )
                  (    -1          0          0      )

 cart.    s(23) = (  0.0000000  0.0000000 -1.0000000 )
                  ( -1.0000000  0.0000000  0.0000000 )
                  (  0.0000000  1.0000000  0.0000000 )


      isym = 24     120 deg rotation - cart. axis [-1,-1,1]      

 cryst.   s(24) = (     0          1          0      )
                  (     0          0         -1      )
                  (    -1          0          0      )

 cart.    s(24) = (  0.0000000  0.0000000 -1.0000000 )
                  (  1.0000000  0.0000000  0.0000000 )
                  (  0.0000000 -1.0000000  0.0000000 )


      isym = 25     inversion                                    

 cryst.   s(25) = (    -1          0          0      )
                  (     0         -1          0      )
                  (     0          0         -1      )

 cart.    s(25) = ( -1.0000000  0.0000000  0.0000000 )
                  (  0.0000000 -1.0000000  0.0000000 )
                  (  0.0000000  0.0000000 -1.0000000 )


      isym = 26     inv. 180 deg rotation - cart. axis [0,0,1]   

 cryst.   s(26) = (     1          0          0      )
                  (     0          1          0      )
                  (     0          0         -1      )

 cart.    s(26) = (  1.0000000  0.0000000  0.0000000 )
                  (  0.0000000  1.0000000  0.0000000 )
                  (  0.0000000  0.0000000 -1.0000000 )


      isym = 27     inv. 180 deg rotation - cart. axis [0,1,0]   

 cryst.   s(27) = (     1          0          0      )
                  (     0         -1          0      )
                  (     0          0          1      )

 cart.    s(27) = (  1.0000000  0.0000000  0.0000000 )
                  (  0.0000000 -1.0000000  0.0000000 )
                  (  0.0000000  0.0000000  1.0000000 )


      isym = 28     inv. 180 deg rotation - cart. axis [1,0,0]   

 cryst.   s(28) = (    -1          0          0      )
                  (     0          1          0      )
                  (     0          0          1      )

 cart.    s(28) = ( -1.0000000  0.0000000  0.0000000 )
                  (  0.0000000  1.0000000  0.0000000 )
                  (  0.0000000  0.0000000  1.0000000 )


      isym = 29     inv. 180 deg rotation - cart. axis [1,1,0]   

 cryst.   s(29) = (     0         -1          0      )
                  (    -1          0          0      )
                  (     0          0          1      )

 cart.    s(29) = (  0.0000000 -1.0000000  0.0000000 )
                  ( -1.0000000  0.0000000  0.0000000 )
                  (  0.0000000  0.0000000  1.0000000 )


      isym = 30     inv. 180 deg rotation - cart. axis [1,-1,0]  

 cryst.   s(30) = (     0          1          0      )
                  (     1          0          0      )
                  (     0          0          1      )

 cart.    s(30) = (  0.0000000  1.0000000  0.0000000 )
                  (  1.0000000  0.0000000  0.0000000 )
                  (  0.0000000  0.0000000  1.0000000 )


      isym = 31     inv.  90 deg rotation - cart. axis [0,0,-1]  

 cryst.   s(31) = (     0          1          0      )
                  (    -1          0          0      )
                  (     0          0         -1      )

 cart.    s(31) = (  0.0000000 -1.0000000  0.0000000 )
                  (  1.0000000  0.0000000  0.0000000 )
                  (  0.0000000  0.0000000 -1.0000000 )


      isym = 32     inv.  90 deg rotation - cart. axis [0,0,1]   

 cryst.   s(32) = (     0         -1          0      )
                  (     1          0          0      )
                  (     0          0         -1      )

 cart.    s(32) = (  0.0000000  1.0000000  0.0000000 )
                  ( -1.0000000  0.0000000  0.0000000 )
                  (  0.0000000  0.0000000 -1.0000000 )


      isym = 33     inv. 180 deg rotation - cart. axis [1,0,1]   

 cryst.   s(33) = (     0          0         -1      )
                  (     0          1          0      )
                  (    -1          0          0      )

 cart.    s(33) = (  0.0000000  0.0000000 -1.0000000 )
                  (  0.0000000  1.0000000  0.0000000 )
                  ( -1.0000000  0.0000000  0.0000000 )


      isym = 34     inv. 180 deg rotation - cart. axis [-1,0,1]  

 cryst.   s(34) = (     0          0          1      )
                  (     0          1          0      )
                  (     1          0          0      )

 cart.    s(34) = (  0.0000000  0.0000000  1.0000000 )
                  (  0.0000000  1.0000000  0.0000000 )
                  (  1.0000000  0.0000000  0.0000000 )


      isym = 35     inv.  90 deg rotation - cart. axis [0,1,0]   

 cryst.   s(35) = (     0          0          1      )
                  (     0         -1          0      )
                  (    -1          0          0      )

 cart.    s(35) = (  0.0000000  0.0000000 -1.0000000 )
                  (  0.0000000 -1.0000000  0.0000000 )
                  (  1.0000000  0.0000000  0.0000000 )


      isym = 36     inv.  90 deg rotation - cart. axis [0,-1,0]  

 cryst.   s(36) = (     0          0         -1      )
                  (     0         -1          0      )
                  (     1          0          0      )

 cart.    s(36) = (  0.0000000  0.0000000  1.0000000 )
                  (  0.0000000 -1.0000000  0.0000000 )
                  ( -1.0000000  0.0000000  0.0000000 )


      isym = 37     inv. 180 deg rotation - cart. axis [0,1,1]   

 cryst.   s(37) = (     1          0          0      )
                  (     0          0         -1      )
                  (     0         -1          0      )

 cart.    s(37) = (  1.0000000  0.0000000  0.0000000 )
                  (  0.0000000  0.0000000 -1.0000000 )
                  (  0.0000000 -1.0000000  0.0000000 )


      isym = 38     inv. 180 deg rotation - cart. axis [0,1,-1]  

 cryst.   s(38) = (     1          0          0      )
                  (     0          0          1      )
                  (     0          1          0      )

 cart.    s(38) = (  1.0000000  0.0000000  0.0000000 )
                  (  0.0000000  0.0000000  1.0000000 )
                  (  0.0000000  1.0000000  0.0000000 )


      isym = 39     inv.  90 deg rotation - cart. axis [-1,0,0]  

 cryst.   s(39) = (    -1          0          0      )
                  (     0          0          1      )
                  (     0         -1          0      )

 cart.    s(39) = ( -1.0000000  0.0000000  0.0000000 )
                  (  0.0000000  0.0000000 -1.0000000 )
                  (  0.0000000  1.0000000  0.0000000 )


      isym = 40     inv.  90 deg rotation - cart. axis [1,0,0]   

 cryst.   s(40) = (    -1          0          0      )
                  (     0          0         -1      )
                  (     0          1          0      )

 cart.    s(40) = ( -1.0000000  0.0000000  0.0000000 )
                  (  0.0000000  0.0000000  1.0000000 )
                  (  0.0000000 -1.0000000  0.0000000 )


      isym = 41     inv. 120 deg rotation - cart. axis [-1,-1,-1]

 cryst.   s(41) = (     0          0         -1      )
                  (    -1          0          0      )
                  (     0         -1          0      )

 cart.    s(41) = (  0.0000000 -1.0000000  0.0000000 )
                  (  0.0000000  0.0000000 -1.0000000 )
                  ( -1.0000000  0.0000000  0.0000000 )


      isym = 42     inv. 120 deg rotation - cart. axis [-1,1,1]  

 cryst.   s(42) = (     0          0          1      )
                  (     1          0          0      )
                  (     0         -1          0      )

 cart.    s(42) = (  0.0000000  1.0000000  0.0000000 )
                  (  0.0000000  0.0000000 -1.0000000 )
                  (  1.0000000  0.0000000  0.0000000 )


      isym = 43     inv. 120 deg rotation - cart. axis [1,1,-1]  

 cryst.   s(43) = (     0          0          1      )
                  (    -1          0          0      )
                  (     0          1          0      )

 cart.    s(43) = (  0.0000000 -1.0000000  0.0000000 )
                  (  0.0000000  0.0000000  1.0000000 )
                  (  1.0000000  0.0000000  0.0000000 )


      isym = 44     inv. 120 deg rotation - cart. axis [1,-1,1]  

 cryst.   s(44) = (     0          0         -1      )
                  (     1          0          0      )
                  (     0          1          0      )

 cart.    s(44) = (  0.0000000  1.0000000  0.0000000 )
                  (  0.0000000  0.0000000  1.0000000 )
                  ( -1.0000000  0.0000000  0.0000000 )


      isym = 45     inv. 120 deg rotation - cart. axis [1,1,1]   

 cryst.   s(45) = (     0         -1          0      )
                  (     0          0         -1      )
                  (    -1          0          0      )

 cart.    s(45) = (  0.0000000  0.0000000 -1.0000000 )
                  ( -1.0000000  0.0000000  0.0000000 )
                  (  0.0000000 -1.0000000  0.0000000 )


      isym = 46     inv. 120 deg rotation - cart. axis [-1,1,-1] 

 cryst.   s(46) = (     0          1          0      )
                  (     0          0          1      )
                  (    -1          0          0      )

 cart.    s(46) = (  0.0000000  0.0000000 -1.0000000 )
                  (  1.0000000  0.0000000  0.0000000 )
                  (  0.0000000  1.0000000  0.0000000 )


      isym = 47     inv. 120 deg rotation - cart. axis [1,-1,-1] 

 cryst.   s(47) = (     0          1          0      )
                  (     0          0         -1      )
                  (     1          0          0      )

 cart.    s(47) = (  0.0000000  0.0000000  1.0000000 )
                  (  1.0000000  0.0000000  0.0000000 )
                  (  0.0000000 -1.0000000  0.0000000 )


      isym = 48     inv. 120 deg rotation - cart. axis [-1,-1,1] 

 cryst.   s(48) = (     0         -1          0      )
                  (     0          0          1      )
                  (     1          0          0      )

 cart.    s(48) = (  0.0000000  0.0000000  1.0000000 )
                  ( -1.0000000  0.0000000  0.0000000 )
                  (  0.0000000  1.0000000  0.0000000 )


     point group O_h (m-3m) 
     there are 10 classes
     the character table:

       E     8C3   3C2   6C4   6C2'  i     8S6   3s_h  6S4   6s_d 
A_1g   1.00  1.00  1.00  1.00  1.00  1.00  1.00  1.00  1.00  1.00
A_2g   1.00  1.00  1.00 -1.00 -1.00  1.00  1.00  1.00 -1.00 -1.00
E_g    2.00 -1.00  2.00  0.00  0.00  2.00 -1.00  2.00  0.00  0.00
T_1g   3.00  0.00 -1.00  1.00 -1.00  3.00  0.00 -1.00  1.00 -1.00
T_2g   3.00  0.00 -1.00 -1.00  1.00  3.00  0.00 -1.00 -1.00  1.00
A_1u   1.00  1.00  1.00  1.00  1.00 -1.00 -1.00 -1.00 -1.00 -1.00
A_2u   1.00  1.00  1.00 -1.00 -1.00 -1.00 -1.00 -1.00  1.00  1.00
E_u    2.00 -1.00  2.00  0.00  0.00 -2.00  1.00 -2.00  0.00  0.00
T_1u   3.00  0.00 -1.00  1.00 -1.00 -3.00  0.00  1.00 -1.00  1.00
T_2u   3.00  0.00 -1.00 -1.00  1.00 -3.00  0.00  1.00  1.00 -1.00

     the symmetry operations in each class and the name of the first element:

     E        1
          identity                                               
     8C3     17   19   20   18   24   21   22   23
          120 deg rotation - cart. axis [-1,-1,-1]               
     3C2      2    4    3
          180 deg rotation - cart. axis [0,0,1]                  
     6C4      7    8   15   16   12   11
           90 deg rotation - cart. axis [0,0,-1]                 
     6C2'     5    6   14   13   10    9
          180 deg rotation - cart. axis [1,1,0]                  
     i       25
          inversion                                              
     8S6     41   43   44   42   48   45   46   47
          inv. 120 deg rotation - cart. axis [-1,-1,-1]          
     3s_h    26   28   27
          inv. 180 deg rotation - cart. axis [0,0,1]             
     6S4     31   32   39   40   36   35
          inv.  90 deg rotation - cart. axis [0,0,-1]            
     6s_d    29   30   38   37   34   33
          inv. 180 deg rotation - cart. axis [1,1,0]             

   Cartesian axes

     site n.     atom                  positions (alat units)
         1           Fe  tau(   1) = (   0.0000000   0.0000000   0.0000000  )
         2           Mg  tau(   2) = (   0.0000000   0.5000000   0.5000000  )
         3           Mg  tau(   3) = (   0.5000000   0.0000000   0.5000000  )
         4           Mg  tau(   4) = (   0.5000000   0.5000000   0.0000000  )
         5           O   tau(   5) = (   0.5000000   0.5000000   0.5000000  )
         6           O   tau(   6) = (   0.5000000   0.0000000   0.0000000  )
         7           O   tau(   7) = (   0.0000000   0.5000000   0.0000000  )
         8           O   tau(   8) = (   0.0000000   0.0000000   0.5000000  )

   Crystallographic axes

     site n.     atom                  positions (cryst. coord.)
         1           Fe  tau(   1) = (  0.0000000  0.0000000  0.0000000  )
         2           Mg  tau(   2) = (  0.0000000  0.5000000  0.5000000  )
         3           Mg  tau(   3) = (  0.5000000  0.0000000  0.5000000  )
         4           Mg  tau(   4) = (  0.5000000  0.5000000  0.0000000  )
         5           O   tau(   5) = (  0.5000000  0.5000000  0.5000000  )
         6           O   tau(   6) = (  0.5000000  0.0000000  0.0000000  )
         7           O   tau(   7) = (  0.0000000  0.5000000  0.0000000  )
         8           O   tau(   8) = (  0.0000000  0.0000000  0.5000000  )

     number of k points=     4  Fermi-Dirac smearing, width (Ry)=  0.0019
                       cart. coord. in units 2pi/alat
        k(    1) = (   0.0000000   0.0000000   0.0000000), wk =   0.1250000
        k(    2) = (   0.0000000   0.0000000  -0.5000000), wk =   0.3750000
        k(    3) = (   0.0000000  -0.5000000  -0.5000000), wk =   0.3750000
        k(    4) = (  -0.5000000  -0.5000000  -0.5000000), wk =   0.1250000

                       cryst. coord.
        k(    1) = (   0.0000000   0.0000000   0.0000000), wk =   0.1250000
        k(    2) = (   0.0000000   0.0000000  -0.5000000), wk =   0.3750000
        k(    3) = (   0.0000000  -0.5000000  -0.5000000), wk =   0.3750000
        k(    4) = (  -0.5000000  -0.5000000  -0.5000000), wk =   0.1250000

     Dense  grid:  1540499 G-vectors     FFT dimensions: ( 144, 144, 144)

     Dynamical RAM for                 wfc:       1.96 MB

     Dynamical RAM for     wfc (w. buffer):      17.63 MB

     Dynamical RAM for             U proj.:       0.31 MB

     Dynamical RAM for  U proj. (w. buff.):       2.75 MB

     Dynamical RAM for           str. fact:       1.47 MB

     Dynamical RAM for           local pot:       0.00 MB

     Dynamical RAM for          nlocal pot:       1.84 MB

     Dynamical RAM for                qrad:       1.94 MB

     Dynamical RAM for          rho,v,vnew:       5.79 MB

     Dynamical RAM for               rhoin:       1.93 MB

     Dynamical RAM for            rho*nmix:      15.67 MB

     Dynamical RAM for           G-vectors:       2.08 MB

     Dynamical RAM for          h,s,v(r/c):       0.00 MB

     Dynamical RAM for          <psi|beta>:       0.01 MB

     Dynamical RAM for                 psi:       3.92 MB

     Dynamical RAM for                hpsi:       3.92 MB

     Dynamical RAM for      wfcinit/wfcrot:       6.43 MB

     Estimated static dynamical RAM per process >      55.90 MB

     Estimated max dynamical RAM per process >      63.76 MB

     Estimated total dynamical RAM >       2.99 GB
     Generating pointlists ...
     new r_m :   0.2063 (alat units)  1.6413 (a.u.) for type    1
     new r_m :   0.2063 (alat units)  1.6413 (a.u.) for type    2
     new r_m :   0.2063 (alat units)  1.6413 (a.u.) for type    3

     Initial potential from superposition of free atoms

     starting charge   39.00170, renormalised to   46.00000

     negative rho (up, down):  5.519E-07 5.519E-07
 --- in v_hubbard ---
Hubbard energy    0.4410
 -------
     Number of +U iterations with fixed ns =100
     Starting occupations:
 --- enter write_ns ---
 LDA+U parameters:
U( 1)     =  5.00000000
atom    1   Tr[ns(na)] (up, down, total) =   3.00000  3.00000  6.00000
   spin  1
    eigenvalues: 
  0.600  0.600  0.600  0.600  0.600
    eigenvectors:
  1.000  0.000  0.000  0.000  0.000
  0.000  1.000  0.000  0.000  0.000
  0.000  0.000  1.000  0.000  0.000
  0.000  0.000  0.000  1.000  0.000
  0.000  0.000  0.000  0.000  1.000
    occupations:
  0.600  0.000  0.000  0.000  0.000
  0.000  0.600  0.000  0.000  0.000
  0.000  0.000  0.600  0.000  0.000
  0.000  0.000  0.000  0.600  0.000
  0.000  0.000  0.000  0.000  0.600
   spin  2
    eigenvalues: 
  0.600  0.600  0.600  0.600  0.600
    eigenvectors:
  1.000  0.000  0.000  0.000  0.000
  0.000  1.000  0.000  0.000  0.000
  0.000  0.000  1.000  0.000  0.000
  0.000  0.000  0.000  1.000  0.000
  0.000  0.000  0.000  0.000  1.000
    occupations:
  0.600  0.000  0.000  0.000  0.000
  0.000  0.600  0.000  0.000  0.000
  0.000  0.000  0.600  0.000  0.000
  0.000  0.000  0.000  0.600  0.000
  0.000  0.000  0.000  0.000  0.600
atomic mag. moment =   0.00000
N of occupied +U levels =    6.000000
 --- exit write_ns ---
 Atomic wfc used for LDA+U Projector are NOT orthogonalized
     Starting wfcs are   52 randomized atomic wfcs

     total cpu time spent up to now is        4.4 secs

     Self-consistent Calculation

     iteration #  1     ecut=   800.00 Ry     beta= 0.30
     Davidson diagonalization with overlap
     ethr =  1.00E-02,  avg # of iterations = 10.2
 --- enter write_ns ---
 LDA+U parameters:
U( 1)     =  5.00000000
atom    1   Tr[ns(na)] (up, down, total) =   0.19347  0.15393  0.34740
   spin  1
    eigenvalues: 
  0.029  0.029  0.029  0.054  0.054
    eigenvectors:
  0.000  0.000  0.000  0.001  0.999
  0.134  0.022  0.844  0.000  0.000
  0.368  0.506  0.127  0.000  0.000
  0.000  0.000  0.000  0.999  0.001
  0.498  0.473  0.029  0.000  0.000
    occupations:
  0.054 -0.000 -0.000  0.000  0.000
 -0.000  0.029 -0.000  0.000  0.000
 -0.000 -0.000  0.029  0.000  0.000
  0.000  0.000  0.000  0.054 -0.000
  0.000  0.000  0.000 -0.000  0.029
   spin  2
    eigenvalues: 
  0.017  0.017  0.017  0.052  0.052
    eigenvectors:
  0.000  0.000  0.000  0.005  0.995
  0.109  0.006  0.885  0.000  0.000
  0.315  0.616  0.068  0.000  0.000
  0.000  0.000  0.000  0.995  0.005
  0.576  0.378  0.046  0.000  0.000
    occupations:
  0.052 -0.000 -0.000  0.000  0.000
 -0.000  0.017 -0.000  0.000  0.000
 -0.000 -0.000  0.017  0.000  0.000
  0.000  0.000  0.000  0.052 -0.000
  0.000  0.000  0.000 -0.000  0.017
atomic mag. moment =   0.03954
N of occupied +U levels =    0.347398
 --- exit write_ns ---
 Modify starting ns matrices according to input values 
 --- enter write_ns ---
 LDA+U parameters:
U( 1)     =  5.00000000
atom    1   Tr[ns(na)] (up, down, total) =   5.00000  1.00000  6.00000
   spin  1
    eigenvalues: 
  1.000  1.000  1.000  1.000  1.000
    eigenvectors:
  0.009  0.062  0.730  0.172  0.028
  0.110  0.522  0.185  0.173  0.009
  0.188  0.034  0.000  0.251  0.526
  0.044  0.115  0.085  0.361  0.394
  0.649  0.266  0.000  0.043  0.043
    occupations:
  1.000  0.000 -0.000 -0.000  0.000
  0.000  1.000  0.000  0.000 -0.000
 -0.000  0.000  1.000 -0.000  0.000
 -0.000  0.000 -0.000  1.000 -0.000
  0.000 -0.000  0.000 -0.000  1.000
   spin  2
    eigenvalues: 
 -0.000 -0.000  0.000  0.000  1.000
    eigenvectors:
  0.000  0.000  0.005  0.000  0.995
  0.783  0.164  0.000  0.053  0.000
  0.185  0.271  0.000  0.544  0.000
  0.000  0.000  0.995  0.000  0.005
  0.032  0.565  0.000  0.403  0.000
    occupations:
  0.995 -0.000 -0.000 -0.074  0.000
 -0.000  0.000  0.000  0.000 -0.000
 -0.000  0.000  0.000  0.000 -0.000
 -0.074  0.000  0.000  0.005 -0.000
  0.000 -0.000 -0.000 -0.000  0.000
atomic mag. moment =   4.00000
N of occupied +U levels =    6.000000
 --- exit write_ns ---

     RESET ns to initial values (iter <= mixing_fixed_ns)


     negative rho (up, down):  2.701E-07 3.026E-07
 --- in v_hubbard ---
Hubbard energy   -0.0000
 -------

     total cpu time spent up to now is        9.1 secs

     total energy              =    -372.65124414 Ry
     estimated scf accuracy    <      54.87494883 Ry

     total magnetization       =     4.00 Bohr mag/cell
     absolute magnetization    =     4.00 Bohr mag/cell

     iteration #  2     ecut=   800.00 Ry     beta= 0.30
     Davidson diagonalization with overlap
     ethr =  1.00E-02,  avg # of iterations =  9.5
 --- enter write_ns ---
 LDA+U parameters:
U( 1)     =  5.00000000
atom    1   Tr[ns(na)] (up, down, total) =   4.76015  3.80260  8.56275
   spin  1
    eigenvalues: 
  0.940  0.940  0.960  0.960  0.960
    eigenvectors:
  0.000  1.000  0.000  0.000  0.000
  0.000  0.000  0.118  0.000  0.882
  0.000  0.000  0.357  0.600  0.043
  1.000  0.000  0.000  0.000  0.000
  0.000  0.000  0.526  0.399  0.075
    occupations:
  0.940 -0.000 -0.000  0.000  0.000
 -0.000  0.960 -0.000  0.000  0.000
 -0.000 -0.000  0.960  0.000  0.000
  0.000  0.000  0.000  0.940 -0.000
  0.000  0.000  0.000 -0.000  0.960
   spin  2
    eigenvalues: 
  0.700  0.700  0.801  0.801  0.801
    eigenvectors:
  0.020  0.980  0.000  0.000  0.000
  0.000  0.000  0.120  0.000  0.879
  0.000  0.000  0.371  0.572  0.057
  0.980  0.020  0.000  0.000  0.000
  0.000  0.000  0.508  0.428  0.064
    occupations:
  0.700 -0.000 -0.000  0.000  0.000
 -0.000  0.801 -0.000  0.000  0.000
 -0.000 -0.000  0.801  0.000  0.000
  0.000  0.000  0.000  0.700 -0.000
  0.000  0.000  0.000 -0.000  0.801
atomic mag. moment =   0.95755
N of occupied +U levels =    8.562752
 --- exit write_ns ---

     RESET ns to initial values (iter <= mixing_fixed_ns)


     negative rho (up, down):  1.645E-07 1.984E-07
 --- in v_hubbard ---
Hubbard energy   -0.0000
 -------

     total cpu time spent up to now is       13.9 secs

     total energy              =    -378.62488624 Ry
     estimated scf accuracy    <      11.91559623 Ry

     total magnetization       =     4.00 Bohr mag/cell
     absolute magnetization    =     4.00 Bohr mag/cell

     iteration #  3     ecut=   800.00 Ry     beta= 0.30
     Davidson diagonalization with overlap
     ethr =  1.00E-02,  avg # of iterations =  2.2
 --- enter write_ns ---
 LDA+U parameters:
U( 1)     =  5.00000000
atom    1   Tr[ns(na)] (up, down, total) =   4.59749  1.07877  5.67626
   spin  1
    eigenvalues: 
  0.915  0.915  0.923  0.923  0.923
    eigenvectors:
  0.008  0.992  0.000  0.000  0.000
  0.000  0.000  0.117  0.000  0.883
  0.000  0.000  0.365  0.592  0.044
  0.992  0.008  0.000  0.000  0.000
  0.000  0.000  0.518  0.408  0.074
    occupations:
  0.915 -0.000 -0.000  0.000  0.000
 -0.000  0.923 -0.000  0.000  0.000
 -0.000 -0.000  0.923  0.000  0.000
  0.000  0.000  0.000  0.915 -0.000
  0.000  0.000  0.000 -0.000  0.923
   spin  2
    eigenvalues: 
  0.068  0.068  0.068  0.438  0.438
    eigenvectors:
  0.000  0.000  0.000  0.003  0.997
  0.116  0.000  0.884  0.000  0.000
  0.378  0.570  0.052  0.000  0.000
  0.000  0.000  0.000  0.997  0.003
  0.506  0.430  0.064  0.000  0.000
    occupations:
  0.438 -0.000 -0.000  0.000  0.000
 -0.000  0.068 -0.000  0.000  0.000
 -0.000 -0.000  0.068  0.000  0.000
  0.000  0.000  0.000  0.438 -0.000
  0.000  0.000  0.000 -0.000  0.068
atomic mag. moment =   3.51872
N of occupied +U levels =    5.676259
 --- exit write_ns ---

     RESET ns to initial values (iter <= mixing_fixed_ns)


     negative rho (up, down):  6.729E-08 9.421E-08
 --- in v_hubbard ---
Hubbard energy   -0.0000
 -------

     total cpu time spent up to now is       16.4 secs

     total energy              =    -381.57194631 Ry
     estimated scf accuracy    <       1.83902197 Ry

     total magnetization       =     4.00 Bohr mag/cell
     absolute magnetization    =     4.01 Bohr mag/cell

     iteration #  4     ecut=   800.00 Ry     beta= 0.30
     Davidson diagonalization with overlap
     ethr =  4.00E-03,  avg # of iterations =  2.5
 --- enter write_ns ---
 LDA+U parameters:
U( 1)     =  5.00000000
atom    1   Tr[ns(na)] (up, down, total) =   4.81835  1.15149  5.96984
   spin  1
    eigenvalues: 
  0.933  0.933  0.984  0.984  0.984
    eigenvectors:
  0.006  0.994  0.000  0.000  0.000
  0.000  0.000  0.111  0.002  0.887
  0.000  0.000  0.418  0.512  0.070
  0.994  0.006  0.000  0.000  0.000
  0.000  0.000  0.471  0.486  0.043
    occupations:
  0.933 -0.000 -0.000  0.000  0.000
 -0.000  0.984 -0.000  0.000  0.000
 -0.000 -0.000  0.984  0.000  0.000
  0.000  0.000  0.000  0.933 -0.000
  0.000  0.000  0.000 -0.000  0.984
   spin  2
    eigenvalues: 
  0.051  0.051  0.051  0.499  0.499
    eigenvectors:
  0.000  0.000  0.000  0.001  0.999
  0.097  0.667  0.236  0.000  0.000
  0.136  0.331  0.533  0.000  0.000
  0.000  0.000  0.000  0.999  0.001
  0.767  0.002  0.231  0.000  0.000
    occupations:
  0.499 -0.000 -0.000  0.000  0.000
 -0.000  0.051 -0.000  0.000  0.000
 -0.000 -0.000  0.051  0.000  0.000
  0.000  0.000  0.000  0.499 -0.000
  0.000  0.000  0.000 -0.000  0.051
atomic mag. moment =   3.66686
N of occupied +U levels =    5.969844
 --- exit write_ns ---

     RESET ns to initial values (iter <= mixing_fixed_ns)

 --- in v_hubbard ---
Hubbard energy   -0.0000
 -------

     total cpu time spent up to now is       18.7 secs

     total energy              =    -381.71447271 Ry
     estimated scf accuracy    <       0.61739197 Ry

     total magnetization       =     4.00 Bohr mag/cell
     absolute magnetization    =     4.01 Bohr mag/cell

     iteration #  5     ecut=   800.00 Ry     beta= 0.30
     Davidson diagonalization with overlap
     ethr =  1.34E-03,  avg # of iterations =  3.4
 --- enter write_ns ---
 LDA+U parameters:
U( 1)     =  5.00000000
atom    1   Tr[ns(na)] (up, down, total) =   4.97360  1.28411  6.25771
   spin  1
    eigenvalues: 
  0.994  0.994  0.994  0.996  0.996
    eigenvectors:
  0.000  0.000  0.000  0.009  0.991
  0.114  0.000  0.886  0.000  0.000
  0.364  0.589  0.047  0.000  0.000
  0.000  0.000  0.000  0.991  0.009
  0.522  0.411  0.067  0.000  0.000
    occupations:
  0.996 -0.000 -0.000  0.000  0.000
 -0.000  0.994 -0.000  0.000  0.000
 -0.000 -0.000  0.994  0.000  0.000
  0.000  0.000  0.000  0.996 -0.000
  0.000  0.000  0.000 -0.000  0.994
   spin  2
    eigenvalues: 
  0.087  0.087  0.087  0.512  0.512
    eigenvectors:
  0.000  0.000  0.000  0.001  0.999
  0.094  0.071  0.835  0.000  0.000
  0.380  0.620  0.000  0.000  0.000
  0.000  0.000  0.000  0.999  0.001
  0.526  0.309  0.165  0.000  0.000
    occupations:
  0.512 -0.000 -0.000  0.000  0.000
 -0.000  0.087 -0.000  0.000  0.000
 -0.000 -0.000  0.087  0.000  0.000
  0.000  0.000  0.000  0.512 -0.000
  0.000  0.000  0.000 -0.000  0.087
atomic mag. moment =   3.68949
N of occupied +U levels =    6.257708
 --- exit write_ns ---

     RESET ns to initial values (iter <= mixing_fixed_ns)

 --- in v_hubbard ---
Hubbard energy   -0.0000
 -------

     total cpu time spent up to now is       21.3 secs

     total energy              =    -381.90415553 Ry
     estimated scf accuracy    <       0.11033728 Ry

     total magnetization       =     4.00 Bohr mag/cell
     absolute magnetization    =     4.01 Bohr mag/cell

     iteration #  6     ecut=   800.00 Ry     beta= 0.30
     Davidson diagonalization with overlap
     ethr =  2.40E-04,  avg # of iterations =  4.8
 --- enter write_ns ---
 LDA+U parameters:
U( 1)     =  5.00000000
atom    1   Tr[ns(na)] (up, down, total) =   4.98579  1.26720  6.25299
   spin  1
    eigenvalues: 
  0.997  0.997  0.997  0.998  0.998
    eigenvectors:
  0.000  0.000  0.000  0.000  1.000
  0.106  0.008  0.886  0.000  0.000
  0.327  0.599  0.074  0.000  0.000
  0.000  0.000  0.000  1.000  0.000
  0.567  0.392  0.041  0.000  0.000
    occupations:
  0.998 -0.000 -0.000  0.000  0.000
 -0.000  0.997 -0.000  0.000  0.000
 -0.000 -0.000  0.997  0.000  0.000
  0.000  0.000  0.000  0.998 -0.000
  0.000  0.000  0.000 -0.000  0.997
   spin  2
    eigenvalues: 
  0.045  0.045  0.045  0.566  0.566
    eigenvectors:
  0.000  0.000  0.000  0.000  1.000
  0.417  0.527  0.057  0.000  0.000
  0.159  0.343  0.498  0.000  0.000
  0.000  0.000  0.000  1.000  0.000
  0.424  0.130  0.446  0.000  0.000
    occupations:
  0.566 -0.000 -0.000 -0.000  0.000
 -0.000  0.045 -0.000  0.000  0.000
 -0.000 -0.000  0.045  0.000  0.000
 -0.000  0.000  0.000  0.566 -0.000
  0.000  0.000  0.000 -0.000  0.045
atomic mag. moment =   3.71858
N of occupied +U levels =    6.252995
 --- exit write_ns ---

     RESET ns to initial values (iter <= mixing_fixed_ns)

 --- in v_hubbard ---
Hubbard energy   -0.0000
 -------

     total cpu time spent up to now is       24.0 secs

     total energy              =    -381.94424912 Ry
     estimated scf accuracy    <       0.03037187 Ry

     total magnetization       =     4.00 Bohr mag/cell
     absolute magnetization    =     4.01 Bohr mag/cell

     iteration #  7     ecut=   800.00 Ry     beta= 0.30
     Davidson diagonalization with overlap
     ethr =  6.60E-05,  avg # of iterations =  3.0
 --- enter write_ns ---
 LDA+U parameters:
U( 1)     =  5.00000000
atom    1   Tr[ns(na)] (up, down, total) =   4.98428  1.25458  6.23886
   spin  1
    eigenvalues: 
  0.997  0.997  0.997  0.997  0.997
    eigenvectors:
  0.000  0.000  0.000  0.001  0.999
  0.114  0.000  0.886  0.000  0.000
  0.366  0.588  0.046  0.000  0.000
  0.000  0.000  0.000  0.999  0.001
  0.520  0.412  0.068  0.000  0.000
    occupations:
  0.997 -0.000 -0.000  0.000  0.000
 -0.000  0.997 -0.000  0.000  0.000
 -0.000 -0.000  0.997  0.000  0.000
  0.000  0.000  0.000  0.997 -0.000
  0.000  0.000  0.000 -0.000  0.997
   spin  2
    eigenvalues: 
  0.043  0.043  0.043  0.563  0.563
    eigenvectors:
  0.000  0.000  0.000  0.001  0.999
  0.105  0.021  0.874  0.000  0.000
  0.280  0.626  0.094  0.000  0.000
  0.000  0.000  0.000  0.999  0.001
  0.615  0.353  0.032  0.000  0.000
    occupations:
  0.563 -0.000 -0.000  0.000  0.000
 -0.000  0.043 -0.000  0.000  0.000
 -0.000 -0.000  0.043  0.000  0.000
  0.000  0.000  0.000  0.563 -0.000
  0.000  0.000  0.000 -0.000  0.043
atomic mag. moment =   3.72970
N of occupied +U levels =    6.238862
 --- exit write_ns ---

     RESET ns to initial values (iter <= mixing_fixed_ns)

 --- in v_hubbard ---
Hubbard energy   -0.0000
 -------

     total cpu time spent up to now is       26.5 secs

     total energy              =    -381.94747084 Ry
     estimated scf accuracy    <       0.00356611 Ry

     total magnetization       =     4.00 Bohr mag/cell
     absolute magnetization    =     4.01 Bohr mag/cell

     iteration #  8     ecut=   800.00 Ry     beta= 0.30
     Davidson diagonalization with overlap
     ethr =  7.75E-06,  avg # of iterations =  5.6
 --- enter write_ns ---
 LDA+U parameters:
U( 1)     =  5.00000000
atom    1   Tr[ns(na)] (up, down, total) =   4.98118  1.24727  6.22845
   spin  1
    eigenvalues: 
  0.996  0.996  0.996  0.997  0.997
    eigenvectors:
  0.000  0.000  0.000  0.003  0.997
  0.110  0.004  0.886  0.000  0.000
  0.382  0.547  0.071  0.000  0.000
  0.000  0.000  0.000  0.997  0.003
  0.508  0.449  0.043  0.000  0.000
    occupations:
  0.997 -0.000 -0.000  0.000  0.000
 -0.000  0.996 -0.000  0.000  0.000
 -0.000 -0.000  0.996  0.000  0.000
  0.000  0.000  0.000  0.997 -0.000
  0.000  0.000  0.000 -0.000  0.996
   spin  2
    eigenvalues: 
  0.042  0.042  0.042  0.560  0.560
    eigenvectors:
  0.000  0.000  0.000  0.001  0.999
  0.087  0.116  0.796  0.000  0.000
  0.199  0.766  0.035  0.000  0.000
  0.000  0.000  0.000  0.999  0.001
  0.713  0.118  0.169  0.000  0.000
    occupations:
  0.560 -0.000 -0.000  0.000  0.000
 -0.000  0.042 -0.000  0.000  0.000
 -0.000 -0.000  0.042  0.000  0.000
  0.000  0.000  0.000  0.560 -0.000
  0.000  0.000  0.000 -0.000  0.042
atomic mag. moment =   3.73391
N of occupied +U levels =    6.228455
 --- exit write_ns ---

     RESET ns to initial values (iter <= mixing_fixed_ns)

 --- in v_hubbard ---
Hubbard energy   -0.0000
 -------

     total cpu time spent up to now is       29.5 secs

     total energy              =    -381.94857568 Ry
     estimated scf accuracy    <       0.00038515 Ry

     total magnetization       =     4.00 Bohr mag/cell
     absolute magnetization    =     4.01 Bohr mag/cell

     iteration #  9     ecut=   800.00 Ry     beta= 0.30
     Davidson diagonalization with overlap
     ethr =  8.37E-07,  avg # of iterations =  3.4
 --- enter write_ns ---
 LDA+U parameters:
U( 1)     =  5.00000000
atom    1   Tr[ns(na)] (up, down, total) =   4.98052  1.24317  6.22369
   spin  1
    eigenvalues: 
  0.996  0.996  0.996  0.997  0.997
    eigenvectors:
  0.000  0.000  0.000  0.000  1.000
  0.118  0.002  0.879  0.000  0.000
  0.389  0.540  0.070  0.000  0.000
  0.000  0.000  0.000  1.000  0.000
  0.492  0.458  0.050  0.000  0.000
    occupations:
  0.997 -0.000 -0.000  0.000  0.000
 -0.000  0.996 -0.000  0.000  0.000
 -0.000 -0.000  0.996  0.000  0.000
  0.000  0.000  0.000  0.997 -0.000
  0.000  0.000  0.000 -0.000  0.996
   spin  2
    eigenvalues: 
  0.042  0.042  0.042  0.559  0.559
    eigenvectors:
  0.000  0.000  0.000  0.001  0.999
  0.090  0.061  0.848  0.000  0.000
  0.215  0.778  0.007  0.000  0.000
  0.000  0.000  0.000  0.999  0.001
  0.695  0.161  0.144  0.000  0.000
    occupations:
  0.559 -0.000 -0.000  0.000  0.000
 -0.000  0.042 -0.000  0.000  0.000
 -0.000 -0.000  0.042  0.000  0.000
  0.000  0.000  0.000  0.559 -0.000
  0.000  0.000  0.000 -0.000  0.042
atomic mag. moment =   3.73735
N of occupied +U levels =    6.223686
 --- exit write_ns ---

     RESET ns to initial values (iter <= mixing_fixed_ns)

 --- in v_hubbard ---
Hubbard energy   -0.0000
 -------

     total cpu time spent up to now is       32.3 secs

     total energy              =    -381.94854911 Ry
     estimated scf accuracy    <       0.00032184 Ry

     total magnetization       =     4.00 Bohr mag/cell
     absolute magnetization    =     4.01 Bohr mag/cell

     iteration # 10     ecut=   800.00 Ry     beta= 0.30
     Davidson diagonalization with overlap
     ethr =  7.00E-07,  avg # of iterations =  2.1
 --- enter write_ns ---
 LDA+U parameters:
U( 1)     =  5.00000000
atom    1   Tr[ns(na)] (up, down, total) =   4.98171  1.24791  6.22963
   spin  1
    eigenvalues: 
  0.996  0.996  0.996  0.997  0.997
    eigenvectors:
  0.000  0.000  0.000  0.008  0.992
  0.115  0.003  0.882  0.000  0.000
  0.397  0.530  0.072  0.000  0.000
  0.000  0.000  0.000  0.992  0.008
  0.488  0.467  0.045  0.000  0.000
    occupations:
  0.997 -0.000 -0.000  0.000  0.000
 -0.000  0.996 -0.000  0.000  0.000
 -0.000 -0.000  0.996  0.000  0.000
  0.000  0.000  0.000  0.997 -0.000
  0.000  0.000  0.000 -0.000  0.996
   spin  2
    eigenvalues: 
  0.042  0.042  0.042  0.561  0.561
    eigenvectors:
  0.000  0.000  0.000  0.002  0.998
  0.064  0.071  0.865  0.000  0.000
  0.116  0.767  0.117  0.000  0.000
  0.000  0.000  0.000  0.998  0.002
  0.820  0.163  0.017  0.000  0.000
    occupations:
  0.561 -0.000 -0.000  0.000  0.000
 -0.000  0.042 -0.000  0.000  0.000
 -0.000 -0.000  0.042  0.000  0.000
  0.000  0.000  0.000  0.561 -0.000
  0.000  0.000  0.000 -0.000  0.042
atomic mag. moment =   3.73380
N of occupied +U levels =    6.229627
 --- exit write_ns ---

     RESET ns to initial values (iter <= mixing_fixed_ns)

 --- in v_hubbard ---
Hubbard energy   -0.0000
 -------

     total cpu time spent up to now is       34.9 secs

     total energy              =    -381.94866689 Ry
     estimated scf accuracy    <       0.00010442 Ry

     total magnetization       =     4.00 Bohr mag/cell
     absolute magnetization    =     4.01 Bohr mag/cell

     iteration # 11     ecut=   800.00 Ry     beta= 0.30
     Davidson diagonalization with overlap
     ethr =  2.27E-07,  avg # of iterations =  1.9
 --- enter write_ns ---
 LDA+U parameters:
U( 1)     =  5.00000000
atom    1   Tr[ns(na)] (up, down, total) =   4.98143  1.24670  6.22813
   spin  1
    eigenvalues: 
  0.996  0.996  0.996  0.997  0.997
    eigenvectors:
  0.000  0.000  0.000  0.002  0.998
  0.111  0.000  0.889  0.000  0.000
  0.355  0.602  0.043  0.000  0.000
  0.000  0.000  0.000  0.998  0.002
  0.534  0.398  0.068  0.000  0.000
    occupations:
  0.997 -0.000 -0.000  0.000  0.000
 -0.000  0.996 -0.000  0.000  0.000
 -0.000 -0.000  0.996  0.000  0.000
  0.000  0.000  0.000  0.997 -0.000
  0.000  0.000  0.000 -0.000  0.996
   spin  2
    eigenvalues: 
  0.042  0.042  0.042  0.561  0.561
    eigenvectors:
  0.000  0.000  0.000  0.001  0.999
  0.137  0.119  0.744  0.000  0.000
  0.300  0.447  0.253  0.000  0.000
  0.000  0.000  0.000  0.999  0.001
  0.563  0.434  0.003  0.000  0.000
    occupations:
  0.561 -0.000 -0.000  0.000  0.000
 -0.000  0.042 -0.000  0.000  0.000
 -0.000 -0.000  0.042  0.000  0.000
  0.000  0.000  0.000  0.561 -0.000
  0.000  0.000  0.000 -0.000  0.042
atomic mag. moment =   3.73473
N of occupied +U levels =    6.228131
 --- exit write_ns ---

     RESET ns to initial values (iter <= mixing_fixed_ns)

 --- in v_hubbard ---
Hubbard energy   -0.0000
 -------

     total cpu time spent up to now is       37.2 secs

     total energy              =    -381.94866724 Ry
     estimated scf accuracy    <       0.00001649 Ry

     total magnetization       =     4.00 Bohr mag/cell
     absolute magnetization    =     4.01 Bohr mag/cell

     iteration # 12     ecut=   800.00 Ry     beta= 0.30
     Davidson diagonalization with overlap
     ethr =  3.59E-08,  avg # of iterations =  3.5
 --- enter write_ns ---
 LDA+U parameters:
U( 1)     =  5.00000000
atom    1   Tr[ns(na)] (up, down, total) =   4.98110  1.24532  6.22642
   spin  1
    eigenvalues: 
  0.996  0.996  0.996  0.997  0.997
    eigenvectors:
  0.000  0.000  0.000  0.077  0.923
  0.129  0.031  0.840  0.000  0.000
  0.355  0.508  0.137  0.000  0.000
  0.000  0.000  0.000  0.923  0.077
  0.516  0.461  0.023  0.000  0.000
    occupations:
  0.997 -0.000 -0.000  0.000  0.000
 -0.000  0.996 -0.000  0.000  0.000
 -0.000 -0.000  0.996  0.000  0.000
  0.000  0.000  0.000  0.997 -0.000
  0.000  0.000  0.000 -0.000  0.996
   spin  2
    eigenvalues: 
  0.042  0.042  0.042  0.560  0.560
    eigenvectors:
  0.000  0.000  0.000  0.001  0.999
  0.172  0.085  0.744  0.000  0.000
  0.380  0.369  0.251  0.000  0.000
  0.000  0.000  0.000  0.999  0.001
  0.448  0.547  0.005  0.000  0.000
    occupations:
  0.560 -0.000 -0.000  0.000  0.000
 -0.000  0.042 -0.000  0.000  0.000
 -0.000 -0.000  0.042  0.000  0.000
  0.000  0.000  0.000  0.560 -0.000
  0.000  0.000  0.000 -0.000  0.042
atomic mag. moment =   3.73579
N of occupied +U levels =    6.226424
 --- exit write_ns ---

     RESET ns to initial values (iter <= mixing_fixed_ns)

 --- in v_hubbard ---
Hubbard energy   -0.0000
 -------

     total cpu time spent up to now is       40.0 secs

     total energy              =    -381.94867340 Ry
     estimated scf accuracy    <       0.00001152 Ry

     total magnetization       =     4.00 Bohr mag/cell
     absolute magnetization    =     4.01 Bohr mag/cell

     iteration # 13     ecut=   800.00 Ry     beta= 0.30
     Davidson diagonalization with overlap
     ethr =  2.50E-08,  avg # of iterations =  2.0
 --- enter write_ns ---
 LDA+U parameters:
U( 1)     =  5.00000000
atom    1   Tr[ns(na)] (up, down, total) =   4.98122  1.24584  6.22706
   spin  1
    eigenvalues: 
  0.996  0.996  0.996  0.997  0.997
    eigenvectors:
  0.000  0.000  0.000  0.002  0.998
  0.118  0.014  0.868  0.000  0.000
  0.374  0.525  0.101  0.000  0.000
  0.000  0.000  0.000  0.998  0.002
  0.508  0.461  0.031  0.000  0.000
    occupations:
  0.997 -0.000 -0.000  0.000  0.000
 -0.000  0.996 -0.000  0.000  0.000
 -0.000 -0.000  0.996  0.000  0.000
  0.000  0.000  0.000  0.997 -0.000
  0.000  0.000  0.000 -0.000  0.996
   spin  2
    eigenvalues: 
  0.042  0.042  0.042  0.560  0.560
    eigenvectors:
  0.000  0.000  0.000  0.001  0.999
  0.032  0.541  0.427  0.000  0.000
  0.751  0.039  0.210  0.000  0.000
  0.000  0.000  0.000  0.999  0.001
  0.217  0.421  0.363  0.000  0.000
    occupations:
  0.560 -0.000 -0.000  0.000  0.000
 -0.000  0.042 -0.000  0.000  0.000
 -0.000 -0.000  0.042  0.000  0.000
  0.000  0.000  0.000  0.560 -0.000
  0.000  0.000  0.000 -0.000  0.042
atomic mag. moment =   3.73538
N of occupied +U levels =    6.227057
 --- exit write_ns ---

     RESET ns to initial values (iter <= mixing_fixed_ns)

 --- in v_hubbard ---
Hubbard energy   -0.0000
 -------

     total cpu time spent up to now is       42.4 secs

     total energy              =    -381.94867419 Ry
     estimated scf accuracy    <       0.00000109 Ry

     total magnetization       =     4.00 Bohr mag/cell
     absolute magnetization    =     4.01 Bohr mag/cell

     iteration # 14     ecut=   800.00 Ry     beta= 0.30
     Davidson diagonalization with overlap
     ethr =  2.37E-09,  avg # of iterations =  3.6
 --- enter write_ns ---
 LDA+U parameters:
U( 1)     =  5.00000000
atom    1   Tr[ns(na)] (up, down, total) =   4.98125  1.24601  6.22726
   spin  1
    eigenvalues: 
  0.996  0.996  0.996  0.997  0.997
    eigenvectors:
  0.000  0.000  0.000  0.001  0.999
  0.105  0.012  0.883  0.000  0.000
  0.367  0.546  0.087  0.000  0.000
  0.000  0.000  0.000  0.999  0.001
  0.528  0.442  0.030  0.000  0.000
    occupations:
  0.997 -0.000 -0.000  0.000  0.000
 -0.000  0.996 -0.000  0.000  0.000
 -0.000 -0.000  0.996  0.000  0.000
  0.000  0.000  0.000  0.997 -0.000
  0.000  0.000  0.000 -0.000  0.996
   spin  2
    eigenvalues: 
  0.042  0.042  0.042  0.560  0.560
    eigenvectors:
  0.000  0.000  0.000  0.000  1.000
  0.137  0.143  0.720  0.000  0.000
  0.503  0.497  0.000  0.000  0.000
  0.000  0.000  0.000  1.000  0.000
  0.360  0.360  0.280  0.000  0.000
    occupations:
  0.560 -0.000 -0.000  0.000  0.000
 -0.000  0.042 -0.000  0.000  0.000
 -0.000 -0.000  0.042  0.000  0.000
  0.000  0.000  0.000  0.560 -0.000
  0.000  0.000  0.000 -0.000  0.042
atomic mag. moment =   3.73524
N of occupied +U levels =    6.227263
 --- exit write_ns ---

     RESET ns to initial values (iter <= mixing_fixed_ns)

 --- in v_hubbard ---
Hubbard energy   -0.0000
 -------

     total cpu time spent up to now is       45.1 secs

     total energy              =    -381.94867440 Ry
     estimated scf accuracy    <       0.00000012 Ry

     total magnetization       =     4.00 Bohr mag/cell
     absolute magnetization    =     4.01 Bohr mag/cell

     iteration # 15     ecut=   800.00 Ry     beta= 0.30
     Davidson diagonalization with overlap
     ethr =  2.50E-10,  avg # of iterations =  3.0
 --- enter write_ns ---
 LDA+U parameters:
U( 1)     =  5.00000000
atom    1   Tr[ns(na)] (up, down, total) =   4.98127  1.24606  6.22733
   spin  1
    eigenvalues: 
  0.996  0.996  0.996  0.997  0.997
    eigenvectors:
  0.000  0.000  0.000  0.019  0.981
  0.111  0.006  0.883  0.000  0.000
  0.410  0.508  0.082  0.000  0.000
  0.000  0.000  0.000  0.981  0.019
  0.479  0.486  0.035  0.000  0.000
    occupations:
  0.997 -0.000 -0.000  0.000  0.000
 -0.000  0.996 -0.000  0.000  0.000
 -0.000 -0.000  0.996  0.000  0.000
  0.000  0.000  0.000  0.997 -0.000
  0.000  0.000  0.000 -0.000  0.996
   spin  2
    eigenvalues: 
  0.042  0.042  0.042  0.560  0.560
    eigenvectors:
  0.000  0.000  0.000  0.000  1.000
  0.160  0.116  0.724  0.000  0.000
  0.334  0.393  0.273  0.000  0.000
  0.000  0.000  0.000  1.000  0.000
  0.506  0.491  0.003  0.000  0.000
    occupations:
  0.560 -0.000 -0.000  0.000  0.000
 -0.000  0.042 -0.000  0.000  0.000
 -0.000 -0.000  0.042  0.000  0.000
  0.000  0.000  0.000  0.560 -0.000
  0.000  0.000  0.000 -0.000  0.042
atomic mag. moment =   3.73521
N of occupied +U levels =    6.227326
 --- exit write_ns ---

     RESET ns to initial values (iter <= mixing_fixed_ns)

 --- in v_hubbard ---
Hubbard energy   -0.0000
 -------

     total cpu time spent up to now is       47.7 secs

     total energy              =    -381.94867443 Ry
     estimated scf accuracy    <       0.00000001 Ry

     total magnetization       =     4.00 Bohr mag/cell
     absolute magnetization    =     4.01 Bohr mag/cell

     iteration # 16     ecut=   800.00 Ry     beta= 0.30
     Davidson diagonalization with overlap
     ethr =  2.38E-11,  avg # of iterations =  3.2
 --- enter write_ns ---
 LDA+U parameters:
U( 1)     =  5.00000000
atom    1   Tr[ns(na)] (up, down, total) =   4.98127  1.24606  6.22732
   spin  1
    eigenvalues: 
  0.996  0.996  0.996  0.997  0.997
    eigenvectors:
  0.000  0.000  0.000  0.007  0.993
  0.115  0.033  0.852  0.000  0.000
  0.347  0.524  0.129  0.000  0.000
  0.000  0.000  0.000  0.993  0.007
  0.538  0.442  0.019  0.000  0.000
    occupations:
  0.997 -0.000 -0.000  0.000  0.000
 -0.000  0.996 -0.000  0.000  0.000
 -0.000 -0.000  0.996  0.000  0.000
  0.000  0.000  0.000  0.997 -0.000
  0.000  0.000  0.000 -0.000  0.996
   spin  2
    eigenvalues: 
  0.042  0.042  0.042  0.560  0.560
    eigenvectors:
  0.000  0.000  0.000  0.002  0.998
  0.081  0.595  0.324  0.000  0.000
  0.159  0.403  0.438  0.000  0.000
  0.000  0.000  0.000  0.998  0.002
  0.760  0.001  0.239  0.000  0.000
    occupations:
  0.560 -0.000 -0.000  0.000  0.000
 -0.000  0.042 -0.000  0.000  0.000
 -0.000 -0.000  0.042  0.000  0.000
  0.000  0.000  0.000  0.560 -0.000
  0.000  0.000  0.000 -0.000  0.042
atomic mag. moment =   3.73521
N of occupied +U levels =    6.227323
 --- exit write_ns ---

     RESET ns to initial values (iter <= mixing_fixed_ns)

 --- in v_hubbard ---
Hubbard energy   -0.0000
 -------

     total cpu time spent up to now is       50.3 secs

     total energy              =    -381.94867443 Ry
     estimated scf accuracy    <          4.1E-09 Ry

     total magnetization       =     4.00 Bohr mag/cell
     absolute magnetization    =     4.01 Bohr mag/cell

     iteration # 17     ecut=   800.00 Ry     beta= 0.30
     Davidson diagonalization with overlap
     ethr =  8.95E-12,  avg # of iterations =  2.2
 --- enter write_ns ---
 LDA+U parameters:
U( 1)     =  5.00000000
atom    1   Tr[ns(na)] (up, down, total) =   4.98126  1.24604  6.22730
   spin  1
    eigenvalues: 
  0.996  0.996  0.996  0.997  0.997
    eigenvectors:
  0.000  0.000  0.000  0.011  0.989
  0.108  0.004  0.889  0.000  0.000
  0.365  0.567  0.067  0.000  0.000
  0.000  0.000  0.000  0.989  0.011
  0.527  0.429  0.044  0.000  0.000
    occupations:
  0.997 -0.000 -0.000  0.000  0.000
 -0.000  0.996 -0.000  0.000  0.000
 -0.000 -0.000  0.996  0.000  0.000
  0.000  0.000  0.000  0.997 -0.000
  0.000  0.000  0.000 -0.000  0.996
   spin  2
    eigenvalues: 
  0.042  0.042  0.042  0.560  0.560
    eigenvectors:
  0.000  0.000  0.000  0.001  0.999
  0.023  0.661  0.316  0.000  0.000
  0.675  0.177  0.149  0.000  0.000
  0.000  0.000  0.000  0.999  0.001
  0.302  0.162  0.535  0.000  0.000
    occupations:
  0.560 -0.000 -0.000  0.000  0.000
 -0.000  0.042 -0.000  0.000  0.000
 -0.000 -0.000  0.042  0.000  0.000
  0.000  0.000  0.000  0.560 -0.000
  0.000  0.000  0.000 -0.000  0.042
atomic mag. moment =   3.73522
N of occupied +U levels =    6.227304
 --- exit write_ns ---

     RESET ns to initial values (iter <= mixing_fixed_ns)

 --- in v_hubbard ---
Hubbard energy   -0.0000
 -------

     total cpu time spent up to now is       53.0 secs

     total energy              =    -381.94867443 Ry
     estimated scf accuracy    <          1.9E-09 Ry

     total magnetization       =     4.00 Bohr mag/cell
     absolute magnetization    =     4.01 Bohr mag/cell

     iteration # 18     ecut=   800.00 Ry     beta= 0.30
     Davidson diagonalization with overlap
     ethr =  4.19E-12,  avg # of iterations =  1.8
 --- enter write_ns ---
 LDA+U parameters:
U( 1)     =  5.00000000
atom    1   Tr[ns(na)] (up, down, total) =   4.98126  1.24605  6.22731
   spin  1
    eigenvalues: 
  0.996  0.996  0.996  0.997  0.997
    eigenvectors:
  0.000  0.000  0.000  0.069  0.931
  0.111  0.015  0.874  0.000  0.000
  0.356  0.548  0.096  0.000  0.000
  0.000  0.000  0.000  0.931  0.069
  0.533  0.437  0.030  0.000  0.000
    occupations:
  0.997 -0.000 -0.000  0.000  0.000
 -0.000  0.996 -0.000  0.000  0.000
 -0.000 -0.000  0.996  0.000  0.000
  0.000  0.000  0.000  0.997 -0.000
  0.000  0.000  0.000 -0.000  0.996
   spin  2
    eigenvalues: 
  0.042  0.042  0.042  0.560  0.560
    eigenvectors:
  0.000  0.000  0.000  0.000  1.000
  0.130  0.099  0.771  0.000  0.000
  0.475  0.524  0.001  0.000  0.000
  0.000  0.000  0.000  1.000  0.000
  0.395  0.377  0.228  0.000  0.000
    occupations:
  0.560 -0.000 -0.000  0.000  0.000
 -0.000  0.042 -0.000  0.000  0.000
 -0.000 -0.000  0.042  0.000  0.000
  0.000  0.000  0.000  0.560 -0.000
  0.000  0.000  0.000 -0.000  0.042
atomic mag. moment =   3.73522
N of occupied +U levels =    6.227308
 --- exit write_ns ---

     RESET ns to initial values (iter <= mixing_fixed_ns)

 --- in v_hubbard ---
Hubbard energy   -0.0000
 -------

     total cpu time spent up to now is       55.3 secs

     total energy              =    -381.94867443 Ry
     estimated scf accuracy    <          7.7E-10 Ry

     total magnetization       =     4.00 Bohr mag/cell
     absolute magnetization    =     4.01 Bohr mag/cell

     iteration # 19     ecut=   800.00 Ry     beta= 0.30
     Davidson diagonalization with overlap
     ethr =  1.67E-12,  avg # of iterations =  2.6
 --- enter write_ns ---
 LDA+U parameters:
U( 1)     =  5.00000000
atom    1   Tr[ns(na)] (up, down, total) =   4.98126  1.24605  6.22731
   spin  1
    eigenvalues: 
  0.996  0.996  0.996  0.997  0.997
    eigenvectors:
  0.000  0.000  0.000  0.023  0.977
  0.115  0.009  0.876  0.000  0.000
  0.350  0.565  0.085  0.000  0.000
  0.000  0.000  0.000  0.977  0.023
  0.535  0.426  0.039  0.000  0.000
    occupations:
  0.997 -0.000 -0.000  0.000  0.000
 -0.000  0.996 -0.000  0.000  0.000
 -0.000 -0.000  0.996  0.000  0.000
  0.000  0.000  0.000  0.997 -0.000
  0.000  0.000  0.000 -0.000  0.996
   spin  2
    eigenvalues: 
  0.042  0.042  0.042  0.560  0.560
    eigenvectors:
  0.000  0.000  0.000  0.001  0.999
  0.118  0.077  0.805  0.000  0.000
  0.341  0.469  0.190  0.000  0.000
  0.000  0.000  0.000  0.999  0.001
  0.541  0.454  0.005  0.000  0.000
    occupations:
  0.560 -0.000 -0.000  0.000  0.000
 -0.000  0.042 -0.000  0.000  0.000
 -0.000 -0.000  0.042  0.000  0.000
  0.000  0.000  0.000  0.560 -0.000
  0.000  0.000  0.000 -0.000  0.042
atomic mag. moment =   3.73521
N of occupied +U levels =    6.227311
 --- exit write_ns ---

     RESET ns to initial values (iter <= mixing_fixed_ns)

 --- in v_hubbard ---
Hubbard energy   -0.0000
 -------
 
     Magnetic moment per site:
     atom:    1    charge:   13.4955    magn:    3.4852    constr:    0.0000
     atom:    2    charge:    0.2561    magn:   -0.0003    constr:    0.0000
     atom:    3    charge:    0.2561    magn:   -0.0003    constr:    0.0000
     atom:    4    charge:    0.2561    magn:   -0.0003    constr:    0.0000
     atom:    5    charge:    5.8472    magn:   -0.0017    constr:    0.0000
     atom:    6    charge:    5.8529    magn:    0.0462    constr:    0.0000
     atom:    7    charge:    5.8529    magn:    0.0462    constr:    0.0000
     atom:    8    charge:    5.8529    magn:    0.0462    constr:    0.0000

     total cpu time spent up to now is       57.9 secs

     End of self-consistent calculation

 ------ SPIN UP ------------


          k = 0.0000 0.0000 0.0000 (192431 PWs)   bands (ev):

   -78.9500 -44.5739 -44.5739 -44.5739  -9.9832  -8.7381  -8.7381  -8.3739
     3.2800   3.2800   3.2800   3.8501   3.8501   3.8501   5.4836   5.4836
     6.0720   6.0720   6.0720   6.0835   6.0835   6.0835   7.4558   7.4558
     7.4558  11.9888  16.7793  17.7536  17.7536  17.7536  17.7643  17.7643

     occupation numbers 
     1.0000   1.0000   1.0000   1.0000   1.0000   1.0000   1.0000   1.0000
     1.0000   1.0000   1.0000   1.0000   1.0000   1.0000   1.0000   1.0000
     1.0000   1.0000   1.0000   1.0000   1.0000   1.0000   1.0000   1.0000
     1.0000   0.0000   0.0000   0.0000   0.0000   0.0000   0.0000   0.0000

          k = 0.0000 0.0000-0.5000 (192616 PWs)   bands (ev):

   -78.9500 -44.5746 -44.5738 -44.5738  -9.3512  -9.1703  -8.6911  -8.3285
     2.5153   2.9353   2.9353   3.8658   4.3950   4.3950   4.7831   5.3182
     5.3913   5.3913   5.4873   5.6669   6.6570   6.6570   7.1247   7.1247
     7.9789  15.5403  15.6420  18.7824  19.0782  19.0782  19.4639  19.8839

     occupation numbers 
     1.0000   1.0000   1.0000   1.0000   1.0000   1.0000   1.0000   1.0000
     1.0000   1.0000   1.0000   1.0000   1.0000   1.0000   1.0000   1.0000
     1.0000   1.0000   1.0000   1.0000   1.0000   1.0000   1.0000   1.0000
     1.0000   0.0000   0.0000   0.0000   0.0000   0.0000   0.0000   0.0000

          k = 0.0000-0.5000-0.5000 (192516 PWs)   bands (ev):

   -78.9500 -44.5746 -44.5746 -44.5738  -8.9809  -8.7553  -8.7553  -8.6828
     2.2386   2.4680   2.5933   3.1247   3.1247   3.9684   3.9684   5.3371
     5.4902   6.1348   6.5249   6.5249   6.5585   6.7848   6.8083   6.8083
    10.1385  16.9111  16.9111  16.9635  17.1700  19.0783  19.3812  20.0797

     occupation numbers 
     1.0000   1.0000   1.0000   1.0000   1.0000   1.0000   1.0000   1.0000
     1.0000   1.0000   1.0000   1.0000   1.0000   1.0000   1.0000   1.0000
     1.0000   1.0000   1.0000   1.0000   1.0000   1.0000   1.0000   1.0000
     1.0000   0.0000   0.0000   0.0000   0.0000   0.0000   0.0000   0.0000

          k =-0.5000-0.5000-0.5000 (192672 PWs)   bands (ev):

   -78.9500 -44.5746 -44.5746 -44.5746  -8.6901  -8.6901  -8.6901  -8.6129
     1.7503   1.7503   1.7503   2.3664   2.5929   2.5929   5.0486   5.0486
     5.0486   6.7807   6.7807   6.7807   7.2876   7.2876   7.2876  10.1343
    10.1343  15.2988  15.2988  15.2988  15.4761  19.6448  20.4505  20.4505

     occupation numbers 
     1.0000   1.0000   1.0000   1.0000   1.0000   1.0000   1.0000   1.0000
     1.0000   1.0000   1.0000   1.0000   1.0000   1.0000   1.0000   1.0000
     1.0000   1.0000   1.0000   1.0000   1.0000   1.0000   1.0000   1.0000
     1.0000   0.0000   0.0000   0.0000   0.0000   0.0000   0.0000   0.0000

 ------ SPIN DOWN ----------


          k = 0.0000 0.0000 0.0000 (192431 PWs)   bands (ev):

   -74.3259 -40.0066 -40.0066 -40.0066  -9.9007  -8.6200  -8.3485  -8.3139
     3.3959   3.3959   3.3959   6.1469   6.1469   6.1469   6.1743   6.1743
     6.1743   7.5159   7.5159   7.5159   8.6380  12.3231  12.9625  12.9625
    12.9625  13.3282  17.7646  17.7669  17.9338  18.5724  18.5724  18.5724

     occupation numbers 
     1.0000   1.0000   1.0000   1.0000   1.0000   1.0000   1.0000   1.0000
     1.0000   1.0000   1.0000   1.0000   1.0000   1.0000   1.0000   1.0000
     1.0000   1.0000   1.0000   1.0000   1.0000   0.0013   0.0000   0.0000
     0.0000   0.0000   0.0000   0.0000   0.0000   0.0000   0.0000   0.0000

          k = 0.0000 0.0000-0.5000 (192616 PWs)   bands (ev):

   -74.3259 -40.0080 -40.0066 -40.0066  -9.2380  -9.1265  -8.2866  -8.2689
     3.6768   4.4815   4.4815   4.5650   4.5650   4.8722   5.3927   5.7359
     6.7529   6.7529   6.7582   6.7582  10.2031  13.1379  13.3400  13.9495
    13.9495  15.7161  16.0227  18.8036  19.2983  19.2983  19.9645  20.2006

     occupation numbers 
     1.0000   1.0000   1.0000   1.0000   1.0000   1.0000   1.0000   1.0000
     1.0000   1.0000   1.0000   1.0000   1.0000   1.0000   1.0000   1.0000
     1.0000   1.0000   1.0000   1.0000   1.0000   0.0000   0.0000   0.0000
     0.0000   0.0000   0.0000   0.0000   0.0000   0.0000   0.0000   0.0000

          k = 0.0000-0.5000-0.5000 (192516 PWs)   bands (ev):

   -74.3259 -40.0079 -40.0079 -40.0065  -8.7378  -8.6808  -8.6663  -8.6663
     3.4906   3.9560   4.0037   4.0037   4.7878   5.4252   5.4252   5.4863
     5.5408   6.8548   6.8548   6.8649  10.9923  13.9687  13.9687  14.1918
    14.3714  17.1894  17.1894  17.2855  17.3272  19.4088  19.4656  20.4935

     occupation numbers 
     1.0000   1.0000   1.0000   1.0000   1.0000   1.0000   1.0000   1.0000
     1.0000   1.0000   1.0000   1.0000   1.0000   1.0000   1.0000   1.0000
     1.0000   1.0000   1.0000   1.0000   1.0000   0.0000   0.0000   0.0000
     0.0000   0.0000   0.0000   0.0000   0.0000   0.0000   0.0000   0.0000

          k =-0.5000-0.5000-0.5000 (192672 PWs)   bands (ev):

   -74.3259 -40.0079 -40.0079 -40.0079  -8.6162  -8.6007  -8.6007  -8.6007
     2.7758   2.8628   2.8628   2.8628   4.1301   6.0582   6.8070   6.8070
     6.8070   6.8608   6.8608   6.8608  11.9815  14.3964  14.3964  14.3964
    15.0223  15.4868  15.6002  15.6002  15.6002  20.3136  20.6045  20.6045

     occupation numbers 
     1.0000   1.0000   1.0000   1.0000   1.0000   1.0000   1.0000   1.0000
     1.0000   1.0000   1.0000   1.0000   1.0000   1.0000   1.0000   1.0000
     1.0000   1.0000   1.0000   1.0000   0.9987   0.0000   0.0000   0.0000
     0.0000   0.0000   0.0000   0.0000   0.0000   0.0000   0.0000   0.0000

     the spin up/dw Fermi energies are    11.3133   12.1523 ev

!    total energy              =    -381.94867443 Ry
     estimated scf accuracy    <          1.5E-11 Ry
     smearing contrib. (-TS)   =      -0.00000487 Ry
     internal energy E=F+TS    =    -381.94866956 Ry

     The total energy is F=E-TS. E is the sum of the following terms:
     one-electron contribution =    -240.02608283 Ry
     hartree contribution      =     147.23979912 Ry
     xc contribution           =     -58.67439750 Ry
     ewald contribution        =    -230.48798836 Ry
     Hubbard energy            =      -0.00000000 Ry

     total magnetization       =     4.00 Bohr mag/cell
     absolute magnetization    =     4.01 Bohr mag/cell

     convergence has been achieved in  19 iterations

     Forces acting on atoms (cartesian axes, Ry/au):

     atom    1 type  1   force =     0.00000000    0.00000000    0.00000000
     atom    2 type  2   force =     0.00000000    0.00000000   -0.00000000
     atom    3 type  2   force =     0.00000000    0.00000000    0.00000000
     atom    4 type  2   force =     0.00000000    0.00000000    0.00000000
     atom    5 type  3   force =     0.00000000    0.00000000    0.00000000
     atom    6 type  3   force =     0.00000000    0.00000000    0.00000000
     atom    7 type  3   force =     0.00000000    0.00000000    0.00000000
     atom    8 type  3   force =     0.00000000    0.00000000   -0.00000000
     The non-local contrib.  to forces
     atom    1 type  1   force =     0.00000000   -0.00000000    0.00000000
     atom    2 type  2   force =     0.00000000    0.00000000    0.00000000
     atom    3 type  2   force =     0.00000000    0.00000000    0.00000000
     atom    4 type  2   force =     0.00000000   -0.00000000   -0.00000000
     atom    5 type  3   force =     0.00000000    0.00000000    0.00000000
     atom    6 type  3   force =     0.00000000    0.00000000   -0.00000000
     atom    7 type  3   force =     0.00000000    0.00000000    0.00000000
     atom    8 type  3   force =     0.00000000    0.00000000    0.00000000
     The ionic contribution  to forces
     atom    1 type  1   force =    -0.00000000   -0.00000000   -0.00000000
     atom    2 type  2   force =    -0.00000000    0.00000000    0.00000000
     atom    3 type  2   force =     0.00000000   -0.00000000    0.00000000
     atom    4 type  2   force =     0.00000000    0.00000000   -0.00000000
     atom    5 type  3   force =     0.00000000    0.00000000    0.00000000
     atom    6 type  3   force =     0.00000000   -0.00000000   -0.00000000
     atom    7 type  3   force =    -0.00000000    0.00000000   -0.00000000
     atom    8 type  3   force =    -0.00000000   -0.00000000    0.00000000
     The local contribution  to forces
     atom    1 type  1   force =     0.00000000    0.00000000    0.00000000
     atom    2 type  2   force =    -0.00000000    0.00000000    0.00000000
     atom    3 type  2   force =     0.00000000   -0.00000000    0.00000000
     atom    4 type  2   force =     0.00000000    0.00000000   -0.00000000
     atom    5 type  3   force =     0.00000000    0.00000000    0.00000000
     atom    6 type  3   force =     0.00000000    0.00000000    0.00000000
     atom    7 type  3   force =     0.00000000    0.00000000    0.00000000
     atom    8 type  3   force =     0.00000000    0.00000000    0.00000000
     The core correction contribution to forces
     atom    1 type  1   force =     0.00000000    0.00000000    0.00000000
     atom    2 type  2   force =     0.00000000    0.00000000    0.00000000
     atom    3 type  2   force =     0.00000000    0.00000000    0.00000000
     atom    4 type  2   force =     0.00000000    0.00000000    0.00000000
     atom    5 type  3   force =     0.00000000    0.00000000    0.00000000
     atom    6 type  3   force =     0.00000000    0.00000000    0.00000000
     atom    7 type  3   force =     0.00000000    0.00000000    0.00000000
     atom    8 type  3   force =     0.00000000    0.00000000    0.00000000
     The Hubbard contrib.    to forces
     atom    1 type  1   force =     0.00000000    0.00000000    0.00000000
     atom    2 type  2   force =     0.00000000    0.00000000    0.00000000
     atom    3 type  2   force =     0.00000000    0.00000000    0.00000000
     atom    4 type  2   force =     0.00000000    0.00000000    0.00000000
     atom    5 type  3   force =     0.00000000    0.00000000    0.00000000
     atom    6 type  3   force =     0.00000000    0.00000000    0.00000000
     atom    7 type  3   force =     0.00000000    0.00000000    0.00000000
     atom    8 type  3   force =     0.00000000    0.00000000    0.00000000
     The SCF correction term to forces
     atom    1 type  1   force =    -0.00000000    0.00000000   -0.00000000
     atom    2 type  2   force =     0.00000000    0.00000000    0.00000000
     atom    3 type  2   force =     0.00000000    0.00000000    0.00000000
     atom    4 type  2   force =    -0.00000000   -0.00000000   -0.00000000
     atom    5 type  3   force =    -0.00000000    0.00000000    0.00000000
     atom    6 type  3   force =    -0.00000000   -0.00000000   -0.00000000
     atom    7 type  3   force =     0.00000000    0.00000000   -0.00000000
     atom    8 type  3   force =     0.00000000   -0.00000000    0.00000000

     Total force =     0.000000     Total SCF correction =     0.000000


     Computing stress (Cartesian axis) and pressure

          total   stress  (Ry/bohr**3)                   (kbar)     P=      236.73
   0.00160928   0.00000000   0.00000000          236.73        0.00        0.00
   0.00000000   0.00160928   0.00000000            0.00      236.73        0.00
   0.00000000   0.00000000   0.00160928            0.00        0.00      236.73

     kinetic stress (kbar)  48553.23      0.00      0.00
                                0.00  48553.23      0.00
                                0.00      0.00  48553.23

     local   stress (kbar) -16718.17      0.00     -0.00
                                0.00 -16718.17      0.00
                               -0.00      0.00 -16718.17

     nonloc. stress (kbar) -18078.24      0.00      0.00
                                0.00 -18078.24      0.00
                                0.00      0.00 -18078.24

     hartree stress (kbar)  14328.02     -0.00      0.00
                               -0.00  14328.02     -0.00
                                0.00     -0.00  14328.02

     exc-cor stress (kbar)  -5424.57     -0.00     -0.00
                               -0.00  -5424.57      0.00
                               -0.00      0.00  -5424.57

     corecor stress (kbar)      0.00      0.00      0.00
                                0.00      0.00      0.00
                                0.00      0.00      0.00

     ewald   stress (kbar) -22428.97      0.00     -0.00
                                0.00 -22428.97      0.00
                               -0.00      0.00 -22428.97

     hubbard stress (kbar)      5.43      0.00      0.00
                                0.00      5.43      0.00
                                0.00      0.00      5.43

     DFT-D   stress (kbar)      0.00      0.00      0.00
                                0.00      0.00      0.00
                                0.00      0.00      0.00

     XDM     stress (kbar)      0.00      0.00      0.00
                                0.00      0.00      0.00
                                0.00      0.00      0.00

     dft-nl  stress (kbar)      0.00      0.00      0.00
                                0.00      0.00      0.00
                                0.00      0.00      0.00

     TS-vdW  stress (kbar)      0.00      0.00      0.00
                                0.00      0.00      0.00
                                0.00      0.00      0.00



     Writing output data file pwscf_output/pwscf.save/
 
     init_run     :      2.12s CPU      2.46s WALL (       1 calls)
     electrons    :     52.81s CPU     55.27s WALL (       1 calls)
     forces       :      0.26s CPU      0.26s WALL (       1 calls)
     stress       :      0.97s CPU      0.98s WALL (       1 calls)

     Called by init_run:
     wfcinit      :      1.35s CPU      1.52s WALL (       1 calls)
     wfcinit:atom :      0.03s CPU      0.03s WALL (       8 calls)
     wfcinit:wfcr :      1.19s CPU      1.35s WALL (       8 calls)
     potinit      :      0.16s CPU      0.23s WALL (       1 calls)
     hinit0       :      0.09s CPU      0.15s WALL (       1 calls)

     Called by electrons:
     c_bands      :     42.73s CPU     43.13s WALL (      19 calls)
     sum_band     :      7.20s CPU      7.28s WALL (      19 calls)
     v_of_rho     :      2.04s CPU      2.19s WALL (      20 calls)
     v_h          :      0.08s CPU      0.09s WALL (      20 calls)
     v_xc         :      1.96s CPU      2.10s WALL (      20 calls)
     mix_rho      :      0.80s CPU      0.84s WALL (      19 calls)

     Called by c_bands:
     init_us_2    :      0.39s CPU      0.40s WALL (     352 calls)
     cegterg      :     41.81s CPU     42.11s WALL (     152 calls)

     Called by sum_band:
     sum_band:wei :      0.00s CPU      0.00s WALL (      19 calls)
     sum_band:loo :      6.56s CPU      6.60s WALL (      19 calls)
     sum_band:buf :      0.22s CPU      0.22s WALL (     152 calls)
     sum_band:ini :      0.17s CPU      0.17s WALL (     152 calls)

     Called by *egterg:
     cdiaghg      :      2.85s CPU      2.98s WALL (     717 calls)
     cegterg:over :      3.25s CPU      3.26s WALL (     565 calls)
     cegterg:upda :      2.61s CPU      2.62s WALL (     565 calls)
     cegterg:last :      2.51s CPU      2.52s WALL (     327 calls)
     cdiaghg:chol :      0.20s CPU      0.25s WALL (     717 calls)
     cdiaghg:inve :      0.03s CPU      0.08s WALL (     717 calls)
     cdiaghg:para :      0.19s CPU      0.19s WALL (    1434 calls)
     h_psi        :     30.55s CPU     30.83s WALL (     725 calls)
     g_psi        :      0.14s CPU      0.14s WALL (     565 calls)

     Called by h_psi:
     h_psi:calbec :      0.85s CPU      0.86s WALL (     725 calls)
     vloc_psi     :     27.55s CPU     27.80s WALL (     725 calls)
     add_vuspsi   :      1.05s CPU      1.07s WALL (     725 calls)
     vhpsi        :      0.64s CPU      0.65s WALL (     725 calls)

     General routines
     calbec       :      1.41s CPU      1.43s WALL (    1754 calls)
     fft          :      0.90s CPU      1.09s WALL (     389 calls)
     ffts         :      0.08s CPU      0.09s WALL (      38 calls)
     fftw         :     28.27s CPU     28.52s WALL (   30578 calls)
     davcio       :      0.00s CPU      0.00s WALL (       8 calls)
 
     Parallel routines
     fft_scatt_xy :      4.16s CPU      4.20s WALL (   31005 calls)
     fft_scatt_yz :     14.56s CPU     14.83s WALL (   31005 calls)

     Hubbard U routines
     new_ns       :      0.27s CPU      0.28s WALL (      19 calls)
     new_ns       :      0.27s CPU      0.28s WALL (      19 calls)
     vhpsi        :      0.64s CPU      0.65s WALL (     725 calls)
     force_hub    :      0.10s CPU      0.10s WALL (       1 calls)
     stres_hub    :      0.34s CPU      0.34s WALL (       1 calls)
 
     PWSCF        :     56.74s CPU   1m34.59s WALL

 
   This run was terminated on:  11:27:19  22Nov2021            

=------------------------------------------------------------------------------=
   JOB DONE.
=------------------------------------------------------------------------------=
