
     Program PWSCF v.6.2 (svn rev. 14038) starts on 26May2018 at 15:57:59 

     This program is part of the open-source Quantum ESPRESSO suite
     for quantum simulation of materials; please cite
         "P. Giannozzi et al., J. Phys.:Condens. Matter 21 395502 (2009);
         "P. Giannozzi et al., J. Phys.:Condens. Matter 29 465901 (2017);
          URL http://www.quantum-espresso.org", 
     in publications or presentations arising from this work. More details at
     http://www.quantum-espresso.org/quote

     Parallel version (MPI), running on   144 processors

     MPI processes distributed on     4 nodes
     K-points division:     npool     =       4
     R & G space division:  proc/nbgrp/npool/nimage =      36
     Reading input from scf.in
     Message from routine read_cards :
     DEPRECATED: no units specified in CELL_PARAMETERS card

     Current dimensions of program PWSCF are:
     Max number of different atomic species (ntypx) = 10
     Max number of k-points (npk) =  40000
     Max angular momentum in pseudopotentials (lmaxx) =  3

     IMPORTANT: XC functional enforced from input :
     Exchange-correlation      = PBE0 ( 6  4  8  4 0 0)
     EXX-fraction              =        0.25
     Any further DFT definition will be discarded
     Please, verify this is what you really want


     Subspace diagonalization in iterative solution of the eigenvalue problem:
     one sub-group per band group will be used
     scalapack distributed-memory algorithm (size of sub-group:  4*  4 procs)

     EXX: setup a grid of 8 q-points centered on each k-point
     (k+q)-points:
   0.0000000   0.0000000   0.0000000         1    1
   0.0305248   0.0305248  -0.0915743         2    1
  -0.0305248   0.0915743  -0.0305248         2    4
   0.0610495  -0.0610495  -0.0610495         3    1
   0.0915743  -0.0305248  -0.0305248         2    3
   0.0610495  -0.0610495   0.0610495         3    2
   0.0610495   0.0610495  -0.0610495         3    3
  -0.0305248  -0.0305248  -0.0305248         4    1
 
     Parallelization info
     --------------------
     sticks:   dense  smooth     PW     G-vecs:    dense   smooth      PW
     Min         136     136     39                 5131     5131     749
     Max         137     137     40                 5136     5136     753
     Sum        4917    4917   1431               184797   184797   27031
 


     bravais-lattice index     =            0
     lattice parameter (alat)  =       1.0000  a.u.
     unit-cell volume          =     274.6840 (a.u.)^3
     number of atoms/cell      =            4
     number of atomic types    =            3
     number of electrons       =        44.00 (up:  22.00, down:  22.00)
     number of Kohn-Sham states=           32
     kinetic-energy cutoff     =     300.0000  Ry
     charge density cutoff     =    1200.0000  Ry
     cutoff for Fock operator  =    1200.0000  Ry
     convergence threshold     =      1.0E-09
     mixing beta               =       0.1500
     number of iterations used =            8  local-TF  mixing
     Exchange-correlation      = PBE0 ( 6  4  8  4 0 0)
     EXX-fraction              =        0.25

     celldm(1)=   1.000000  celldm(2)=   0.000000  celldm(3)=   0.000000
     celldm(4)=   0.000000  celldm(5)=   0.000000  celldm(6)=   0.000000

     crystal axes: (cart. coord. in units of alat)
               a(1) = (   8.190073   4.095037   4.095037 )  
               a(2) = (   4.095037   8.190073   4.095037 )  
               a(3) = (   4.095037   4.095037   8.190073 )  

     reciprocal axes: (cart. coord. in units 2 pi/alat)
               b(1) = (  0.183149 -0.061050 -0.061050 )  
               b(2) = ( -0.061050  0.183149 -0.061050 )  
               b(3) = ( -0.061050 -0.061050  0.183149 )  


     PseudoPot. # 1 for Fe read from file:
     ../Fe.opt.upf
     MD5 check sum: 0a1f874e4978502669d7d49c3d82089b
     Pseudo is Norm-conserving, Zval = 16.0
     Generated by new atomic code, or converted to UPF format
     Using radial grid of 1160 points,  2 beta functions with: 
                l(1) =   0
                l(2) =   2

     PseudoPot. # 2 for Fe read from file:
     ../Fe.opt.upf
     MD5 check sum: 0a1f874e4978502669d7d49c3d82089b
     Pseudo is Norm-conserving, Zval = 16.0
     Generated by new atomic code, or converted to UPF format
     Using radial grid of 1160 points,  2 beta functions with: 
                l(1) =   0
                l(2) =   2

     PseudoPot. # 3 for O  read from file:
     ../O.opt.upf
     MD5 check sum: 0b670aeee1f35195f09134313df81f8f
     Pseudo is Norm-conserving, Zval =  6.0
     Generated by new atomic code, or converted to UPF format
     Using radial grid of 1130 points,  1 beta functions with: 
                l(1) =   1

     atomic species   valence    mass     pseudopotential
        Fe1           16.00    55.84500     Fe( 1.00)
        Fe2           16.00    55.84500     Fe( 1.00)
        O              6.00    15.99900     O ( 1.00)

     Starting magnetic structure 
     atomic species   magnetization
        Fe1         -0.500
        Fe2          0.500
        O            0.000

     12 Sym. Ops., with inversion, found


                                    s                        frac. trans.

      isym =  1     identity                                     

 cryst.   s( 1) = (     1          0          0      )
                  (     0          1          0      )
                  (     0          0          1      )

 cart.    s( 1) = (  1.0000000  0.0000000  0.0000000 )
                  (  0.0000000  1.0000000  0.0000000 )
                  (  0.0000000  0.0000000  1.0000000 )


      isym =  2     180 deg rotation - cart. axis [1,-1,0]       

 cryst.   s( 2) = (     0         -1          0      )
                  (    -1          0          0      )
                  (     0          0         -1      )

 cart.    s( 2) = ( -0.0000000 -1.0000000 -0.0000000 )
                  ( -1.0000000 -0.0000000 -0.0000000 )
                  ( -0.0000000 -0.0000000 -1.0000000 )


      isym =  3     180 deg rotation - cart. axis [-1,0,1]       

 cryst.   s( 3) = (     0          0         -1      )
                  (     0         -1          0      )
                  (    -1          0          0      )

 cart.    s( 3) = ( -0.0000000 -0.0000000 -1.0000000 )
                  ( -0.0000000 -1.0000000 -0.0000000 )
                  ( -1.0000000 -0.0000000 -0.0000000 )


      isym =  4     180 deg rotation - cart. axis [0,1,-1]       

 cryst.   s( 4) = (    -1          0          0      )
                  (     0          0         -1      )
                  (     0         -1          0      )

 cart.    s( 4) = ( -1.0000000 -0.0000000 -0.0000000 )
                  ( -0.0000000 -0.0000000 -1.0000000 )
                  ( -0.0000000 -1.0000000 -0.0000000 )


      isym =  5     120 deg rotation - cart. axis [-1,-1,-1]     

 cryst.   s( 5) = (     0          0          1      )
                  (     1          0          0      )
                  (     0          1          0      )

 cart.    s( 5) = (  0.0000000  1.0000000  0.0000000 )
                  (  0.0000000  0.0000000  1.0000000 )
                  (  1.0000000  0.0000000  0.0000000 )


      isym =  6     120 deg rotation - cart. axis [1,1,1]        

 cryst.   s( 6) = (     0          1          0      )
                  (     0          0          1      )
                  (     1          0          0      )

 cart.    s( 6) = (  0.0000000  0.0000000  1.0000000 )
                  (  1.0000000  0.0000000  0.0000000 )
                  (  0.0000000  1.0000000  0.0000000 )


      isym =  7     inversion                                    

 cryst.   s( 7) = (    -1          0          0      )
                  (     0         -1          0      )
                  (     0          0         -1      )

 cart.    s( 7) = ( -1.0000000 -0.0000000 -0.0000000 )
                  ( -0.0000000 -1.0000000 -0.0000000 )
                  ( -0.0000000 -0.0000000 -1.0000000 )


      isym =  8     inv. 180 deg rotation - cart. axis [1,-1,0]  

 cryst.   s( 8) = (     0          1          0      )
                  (     1          0          0      )
                  (     0          0          1      )

 cart.    s( 8) = (  0.0000000  1.0000000  0.0000000 )
                  (  1.0000000  0.0000000  0.0000000 )
                  (  0.0000000  0.0000000  1.0000000 )


      isym =  9     inv. 180 deg rotation - cart. axis [-1,0,1]  

 cryst.   s( 9) = (     0          0          1      )
                  (     0          1          0      )
                  (     1          0          0      )

 cart.    s( 9) = (  0.0000000  0.0000000  1.0000000 )
                  (  0.0000000  1.0000000  0.0000000 )
                  (  1.0000000  0.0000000  0.0000000 )


      isym = 10     inv. 180 deg rotation - cart. axis [0,1,-1]  

 cryst.   s(10) = (     1          0          0      )
                  (     0          0          1      )
                  (     0          1          0      )

 cart.    s(10) = (  1.0000000  0.0000000  0.0000000 )
                  (  0.0000000  0.0000000  1.0000000 )
                  (  0.0000000  1.0000000  0.0000000 )


      isym = 11     inv. 120 deg rotation - cart. axis [-1,-1,-1]

 cryst.   s(11) = (     0          0         -1      )
                  (    -1          0          0      )
                  (     0         -1          0      )

 cart.    s(11) = ( -0.0000000 -1.0000000 -0.0000000 )
                  ( -0.0000000 -0.0000000 -1.0000000 )
                  ( -1.0000000 -0.0000000 -0.0000000 )


      isym = 12     inv. 120 deg rotation - cart. axis [1,1,1]   

 cryst.   s(12) = (     0         -1          0      )
                  (     0          0         -1      )
                  (    -1          0          0      )

 cart.    s(12) = ( -0.0000000 -0.0000000 -1.0000000 )
                  ( -1.0000000 -0.0000000 -0.0000000 )
                  ( -0.0000000 -1.0000000 -0.0000000 )


   Cartesian axes

     site n.     atom                  positions (alat units)
         1           Fe1 tau(   1) = (   0.0000000   0.0000000   0.0000000  )
         2           Fe2 tau(   2) = (   8.1900731   8.1900731   8.1900731  )
         3           O   tau(   3) = (   4.0950365   4.0950365   4.0950365  )
         4           O   tau(   4) = (  12.2851096  12.2851096  12.2851096  )

   Crystallographic axes

     site n.     atom                  positions (cryst. coord.)
         1           Fe1 tau(   1) = (  0.0000000  0.0000000  0.0000000  )
         2           Fe2 tau(   2) = (  0.5000000  0.5000000  0.5000000  )
         3           O   tau(   3) = (  0.2500000  0.2500000  0.2500000  )
         4           O   tau(   4) = (  0.7500000  0.7500000  0.7500000  )

     number of k points=     4  Fermi-Dirac smearing, width (Ry)=  0.0010
                       cart. coord. in units 2pi/alat
        k(    1) = (   0.0000000   0.0000000   0.0000000), wk =   0.1250000
        k(    2) = (   0.0305248   0.0305248  -0.0915743), wk =   0.3750000
        k(    3) = (   0.0610495  -0.0610495  -0.0610495), wk =   0.3750000
        k(    4) = (  -0.0305248  -0.0305248  -0.0305248), wk =   0.1250000

                       cryst. coord.
        k(    1) = (   0.0000000   0.0000000   0.0000000), wk =   0.1250000
        k(    2) = (  -0.0000000  -0.0000000  -0.5000000), wk =   0.3750000
        k(    3) = (  -0.0000000  -0.5000000  -0.5000000), wk =   0.3750000
        k(    4) = (  -0.5000000  -0.5000000  -0.5000000), wk =   0.1250000

     Dense  grid:   184797 G-vectors     FFT dimensions: ( 100, 100, 100)

     Dynamical RAM for                 wfc:       0.33 MB

     Dynamical RAM for     wfc (w. buffer):       0.98 MB

     Dynamical RAM for                 EXX:     670.17 MB

     Dynamical RAM for           str. fact:       0.24 MB

     Dynamical RAM for           local pot:       0.00 MB

     Dynamical RAM for          nlocal pot:       0.18 MB

     Dynamical RAM for                qrad:       0.20 MB

     Dynamical RAM for          rho,v,vnew:       1.84 MB

     Dynamical RAM for               rhoin:       0.61 MB

     Dynamical RAM for            rho*nmix:       2.51 MB

     Dynamical RAM for           G-vectors:       0.33 MB

     Dynamical RAM for          h,s,v(r/c):       0.05 MB

     Dynamical RAM for          <psi|beta>:       0.01 MB

     Dynamical RAM for                 psi:       1.31 MB

     Dynamical RAM for                hpsi:       1.31 MB

     Dynamical RAM for      wfcinit/wfcrot:       0.68 MB

     Estimated static dynamical RAM per process >     678.75 MB

     Estimated max dynamical RAM per process >     681.42 MB

     Estimated total dynamical RAM >      95.82 GB
     Generating pointlists ...
     new r_m :   0.4125 (alat units)  0.4125 (a.u.) for type    1
     new r_m :   0.4125 (alat units)  0.4125 (a.u.) for type    2
     new r_m :   0.4125 (alat units)  0.4125 (a.u.) for type    3

     Initial potential from superposition of free atoms

     starting charge   36.00000, renormalised to   44.00000
     Starting wfc are   26 randomized atomic wfcs +    6 random wfc

     total cpu time spent up to now is        1.3 secs

     Self-consistent Calculation

     iteration #  1     ecut=   300.00 Ry     beta= 0.15
     Davidson diagonalization with overlap
     ethr =  1.00E-02,  avg # of iterations =  4.5

     total cpu time spent up to now is        1.9 secs

     total energy              =    -564.60785112 Ry
     Harris-Foulkes estimate   =    -568.57326860 Ry
     estimated scf accuracy    <      44.95661974 Ry

     total magnetization       =     0.00 Bohr mag/cell
     absolute magnetization    =     4.45 Bohr mag/cell

     iteration #  2     ecut=   300.00 Ry     beta= 0.15
     Davidson diagonalization with overlap
     ethr =  1.00E-02,  avg # of iterations =  2.0

     total cpu time spent up to now is        2.2 secs

     total energy              =    -551.77548762 Ry
     Harris-Foulkes estimate   =    -564.84216238 Ry
     estimated scf accuracy    <      29.87797101 Ry

     total magnetization       =     0.00 Bohr mag/cell
     absolute magnetization    =     5.59 Bohr mag/cell

     iteration #  3     ecut=   300.00 Ry     beta= 0.15
     Davidson diagonalization with overlap
     ethr =  1.00E-02,  avg # of iterations =  4.0

     total cpu time spent up to now is        2.7 secs

     total energy              =    -560.23212172 Ry
     Harris-Foulkes estimate   =    -560.25159934 Ry
     estimated scf accuracy    <      16.12010975 Ry

     total magnetization       =     0.00 Bohr mag/cell
     absolute magnetization    =     2.07 Bohr mag/cell

     iteration #  4     ecut=   300.00 Ry     beta= 0.15
     Davidson diagonalization with overlap
     ethr =  1.00E-02,  avg # of iterations =  1.0

     total cpu time spent up to now is        3.0 secs

     total energy              =    -559.82305977 Ry
     Harris-Foulkes estimate   =    -560.23683104 Ry
     estimated scf accuracy    <      15.93545451 Ry

     total magnetization       =    -0.00 Bohr mag/cell
     absolute magnetization    =     2.09 Bohr mag/cell

     iteration #  5     ecut=   300.00 Ry     beta= 0.15
     Davidson diagonalization with overlap
     ethr =  1.00E-02,  avg # of iterations =  1.0

     total cpu time spent up to now is        3.3 secs

     total energy              =    -558.06105621 Ry
     Harris-Foulkes estimate   =    -559.85172731 Ry
     estimated scf accuracy    <      11.36688721 Ry

     total magnetization       =     0.00 Bohr mag/cell
     absolute magnetization    =     2.81 Bohr mag/cell

     iteration #  6     ecut=   300.00 Ry     beta= 0.15
     Davidson diagonalization with overlap
     ethr =  1.00E-02,  avg # of iterations =  1.0

     total cpu time spent up to now is        3.6 secs

     total energy              =    -559.04312372 Ry
     Harris-Foulkes estimate   =    -559.05765812 Ry
     estimated scf accuracy    <       0.13902285 Ry

     total magnetization       =     0.00 Bohr mag/cell
     absolute magnetization    =     7.09 Bohr mag/cell

     iteration #  7     ecut=   300.00 Ry     beta= 0.15
     Davidson diagonalization with overlap
     ethr =  3.16E-04,  avg # of iterations =  2.0

     total cpu time spent up to now is        4.0 secs

     total energy              =    -559.08003229 Ry
     Harris-Foulkes estimate   =    -559.06029632 Ry
     estimated scf accuracy    <       0.05909461 Ry

     total magnetization       =    -0.00 Bohr mag/cell
     absolute magnetization    =     7.24 Bohr mag/cell

     iteration #  8     ecut=   300.00 Ry     beta= 0.15
     Davidson diagonalization with overlap
     ethr =  1.34E-04,  avg # of iterations =  2.2

     total cpu time spent up to now is        4.3 secs

     total energy              =    -559.11142880 Ry
     Harris-Foulkes estimate   =    -559.08481308 Ry
     estimated scf accuracy    <       0.08262642 Ry

     total magnetization       =     0.00 Bohr mag/cell
     absolute magnetization    =     7.50 Bohr mag/cell

     iteration #  9     ecut=   300.00 Ry     beta= 0.15
     Davidson diagonalization with overlap
     ethr =  1.34E-04,  avg # of iterations =  1.2

     total cpu time spent up to now is        4.6 secs

     total energy              =    -559.10025842 Ry
     Harris-Foulkes estimate   =    -559.11447076 Ry
     estimated scf accuracy    <       0.09844445 Ry

     total magnetization       =     0.00 Bohr mag/cell
     absolute magnetization    =     7.63 Bohr mag/cell

     iteration # 10     ecut=   300.00 Ry     beta= 0.15
     Davidson diagonalization with overlap
     ethr =  1.34E-04,  avg # of iterations =  1.0

     total cpu time spent up to now is        4.9 secs

     total energy              =    -559.10579149 Ry
     Harris-Foulkes estimate   =    -559.10563718 Ry
     estimated scf accuracy    <       0.01306484 Ry

     total magnetization       =    -0.00 Bohr mag/cell
     absolute magnetization    =     7.35 Bohr mag/cell

     iteration # 11     ecut=   300.00 Ry     beta= 0.15
     Davidson diagonalization with overlap
     ethr =  2.97E-05,  avg # of iterations =  1.0

     total cpu time spent up to now is        5.3 secs

     total energy              =    -559.10576925 Ry
     Harris-Foulkes estimate   =    -559.10585382 Ry
     estimated scf accuracy    <       0.01292830 Ry

     total magnetization       =    -0.00 Bohr mag/cell
     absolute magnetization    =     7.35 Bohr mag/cell

     iteration # 12     ecut=   300.00 Ry     beta= 0.15
     Davidson diagonalization with overlap
     ethr =  2.94E-05,  avg # of iterations =  1.0

     total cpu time spent up to now is        5.6 secs

     total energy              =    -559.10640087 Ry
     Harris-Foulkes estimate   =    -559.10577588 Ry
     estimated scf accuracy    <       0.01241642 Ry

     total magnetization       =    -0.00 Bohr mag/cell
     absolute magnetization    =     7.35 Bohr mag/cell

     iteration # 13     ecut=   300.00 Ry     beta= 0.15
     Davidson diagonalization with overlap
     ethr =  2.82E-05,  avg # of iterations =  1.0

     total cpu time spent up to now is        5.9 secs

     total energy              =    -559.10378671 Ry
     Harris-Foulkes estimate   =    -559.10650193 Ry
     estimated scf accuracy    <       0.01790686 Ry

     total magnetization       =     0.00 Bohr mag/cell
     absolute magnetization    =     7.37 Bohr mag/cell

     iteration # 14     ecut=   300.00 Ry     beta= 0.15
     Davidson diagonalization with overlap
     ethr =  2.82E-05,  avg # of iterations =  1.2

     total cpu time spent up to now is        6.3 secs

     total energy              =    -559.10311189 Ry
     Harris-Foulkes estimate   =    -559.10459490 Ry
     estimated scf accuracy    <       0.00606506 Ry

     total magnetization       =    -0.00 Bohr mag/cell
     absolute magnetization    =     7.33 Bohr mag/cell

     iteration # 15     ecut=   300.00 Ry     beta= 0.15
     Davidson diagonalization with overlap
     ethr =  1.38E-05,  avg # of iterations =  2.0

     total cpu time spent up to now is        6.6 secs

     total energy              =    -559.10429020 Ry
     Harris-Foulkes estimate   =    -559.10396935 Ry
     estimated scf accuracy    <       0.00096198 Ry

     total magnetization       =    -0.00 Bohr mag/cell
     absolute magnetization    =     7.31 Bohr mag/cell

     iteration # 16     ecut=   300.00 Ry     beta= 0.15
     Davidson diagonalization with overlap
     ethr =  2.19E-06,  avg # of iterations =  2.0

     total cpu time spent up to now is        6.9 secs

     total energy              =    -559.10442539 Ry
     Harris-Foulkes estimate   =    -559.10447616 Ry
     estimated scf accuracy    <       0.00185855 Ry

     total magnetization       =    -0.00 Bohr mag/cell
     absolute magnetization    =     7.33 Bohr mag/cell

     iteration # 17     ecut=   300.00 Ry     beta= 0.15
     Davidson diagonalization with overlap
     ethr =  2.19E-06,  avg # of iterations =  1.0

     total cpu time spent up to now is        7.2 secs

     total energy              =    -559.10411056 Ry
     Harris-Foulkes estimate   =    -559.10443066 Ry
     estimated scf accuracy    <       0.00155445 Ry

     total magnetization       =     0.00 Bohr mag/cell
     absolute magnetization    =     7.33 Bohr mag/cell

     iteration # 18     ecut=   300.00 Ry     beta= 0.15
     Davidson diagonalization with overlap
     ethr =  2.19E-06,  avg # of iterations =  2.0

     total cpu time spent up to now is        7.6 secs

     total energy              =    -559.10433369 Ry
     Harris-Foulkes estimate   =    -559.10422631 Ry
     estimated scf accuracy    <       0.00048821 Ry

     total magnetization       =     0.00 Bohr mag/cell
     absolute magnetization    =     7.32 Bohr mag/cell

     iteration # 19     ecut=   300.00 Ry     beta= 0.15
     Davidson diagonalization with overlap
     ethr =  1.11E-06,  avg # of iterations =  2.0

     total cpu time spent up to now is        7.9 secs

     total energy              =    -559.10417385 Ry
     Harris-Foulkes estimate   =    -559.10443023 Ry
     estimated scf accuracy    <       0.00082581 Ry

     total magnetization       =    -0.00 Bohr mag/cell
     absolute magnetization    =     7.32 Bohr mag/cell

     iteration # 20     ecut=   300.00 Ry     beta= 0.15
     Davidson diagonalization with overlap
     ethr =  1.11E-06,  avg # of iterations =  2.0

     total cpu time spent up to now is        8.3 secs

     total energy              =    -559.10419881 Ry
     Harris-Foulkes estimate   =    -559.10424708 Ry
     estimated scf accuracy    <       0.00014962 Ry

     total magnetization       =     0.00 Bohr mag/cell
     absolute magnetization    =     7.32 Bohr mag/cell

     iteration # 21     ecut=   300.00 Ry     beta= 0.15
     Davidson diagonalization with overlap
     ethr =  3.40E-07,  avg # of iterations =  2.0

     total cpu time spent up to now is        8.6 secs

     total energy              =    -559.10423212 Ry
     Harris-Foulkes estimate   =    -559.10422713 Ry
     estimated scf accuracy    <       0.00000615 Ry

     total magnetization       =     0.00 Bohr mag/cell
     absolute magnetization    =     7.31 Bohr mag/cell

     iteration # 22     ecut=   300.00 Ry     beta= 0.15
     Davidson diagonalization with overlap
     ethr =  1.40E-08,  avg # of iterations =  2.9

     total cpu time spent up to now is        9.1 secs

     total energy              =    -559.10423103 Ry
     Harris-Foulkes estimate   =    -559.10423841 Ry
     estimated scf accuracy    <       0.00002163 Ry

     total magnetization       =    -0.00 Bohr mag/cell
     absolute magnetization    =     7.32 Bohr mag/cell

     iteration # 23     ecut=   300.00 Ry     beta= 0.15
     Davidson diagonalization with overlap
     ethr =  1.40E-08,  avg # of iterations =  2.0

     total cpu time spent up to now is        9.4 secs

     total energy              =    -559.10423370 Ry
     Harris-Foulkes estimate   =    -559.10423354 Ry
     estimated scf accuracy    <       0.00000060 Ry

     total magnetization       =     0.00 Bohr mag/cell
     absolute magnetization    =     7.32 Bohr mag/cell

     iteration # 24     ecut=   300.00 Ry     beta= 0.15
     Davidson diagonalization with overlap
     ethr =  1.37E-09,  avg # of iterations =  1.5

     total cpu time spent up to now is        9.8 secs

     total energy              =    -559.10423350 Ry
     Harris-Foulkes estimate   =    -559.10423376 Ry
     estimated scf accuracy    <       0.00000076 Ry

     total magnetization       =    -0.00 Bohr mag/cell
     absolute magnetization    =     7.32 Bohr mag/cell

     iteration # 25     ecut=   300.00 Ry     beta= 0.15
     Davidson diagonalization with overlap
     ethr =  1.37E-09,  avg # of iterations =  2.0

     total cpu time spent up to now is       10.1 secs

     total energy              =    -559.10423362 Ry
     Harris-Foulkes estimate   =    -559.10423362 Ry
     estimated scf accuracy    <       0.00000001 Ry

     total magnetization       =     0.00 Bohr mag/cell
     absolute magnetization    =     7.32 Bohr mag/cell

     iteration # 26     ecut=   300.00 Ry     beta= 0.15
     Davidson diagonalization with overlap
     ethr =  3.20E-11,  avg # of iterations =  2.0

     total cpu time spent up to now is       10.4 secs

     total energy              =    -559.10423363 Ry
     Harris-Foulkes estimate   =    -559.10423363 Ry
     estimated scf accuracy    <          9.4E-09 Ry

     total magnetization       =    -0.00 Bohr mag/cell
     absolute magnetization    =     7.32 Bohr mag/cell

     iteration # 27     ecut=   300.00 Ry     beta= 0.15
     Davidson diagonalization with overlap
     ethr =  2.13E-11,  avg # of iterations =  2.0

     total cpu time spent up to now is       10.8 secs

     total energy              =    -559.10423364 Ry
     Harris-Foulkes estimate   =    -559.10423364 Ry
     estimated scf accuracy    <          2.5E-09 Ry

     total magnetization       =     0.00 Bohr mag/cell
     absolute magnetization    =     7.32 Bohr mag/cell

     iteration # 28     ecut=   300.00 Ry     beta= 0.15
     Davidson diagonalization with overlap
     ethr =  5.57E-12,  avg # of iterations =  1.0

     total cpu time spent up to now is       11.1 secs

     total energy              =    -559.10423364 Ry
     Harris-Foulkes estimate   =    -559.10423364 Ry
     estimated scf accuracy    <          1.7E-09 Ry

     total magnetization       =    -0.00 Bohr mag/cell
     absolute magnetization    =     7.32 Bohr mag/cell

     iteration # 29     ecut=   300.00 Ry     beta= 0.15
     Davidson diagonalization with overlap
     ethr =  3.96E-12,  avg # of iterations =  2.0
 
     Magnetic moment per site:
     atom:    1    charge:    1.0917    magn:   -0.3424    constr:    0.0000
     atom:    2    charge:    1.0917    magn:    0.3424    constr:    0.0000
     atom:    3    charge:    0.3855    magn:   -0.0000    constr:    0.0000
     atom:    4    charge:    0.3855    magn:   -0.0000    constr:    0.0000

     total cpu time spent up to now is       11.4 secs

     End of self-consistent calculation

 ------ SPIN UP ------------


          k = 0.0000 0.0000 0.0000 ( 24053 PWs)   bands (ev):

   -75.1534 -70.6464 -41.7488 -41.7488 -41.4633 -37.2537 -37.2537 -37.2135
    -6.0106  -4.8292   5.8077   8.0570   8.0570  10.4879  10.4879  10.5462
    10.5679  10.5679  10.8851  11.7718  11.7718  14.2068  14.2068  14.2935
    14.5680  16.1558  16.1558  18.4313  22.8688  26.9488  26.9488  29.2893

     occupation numbers 
     1.0000   1.0000   1.0000   1.0000   1.0000   1.0000   1.0000   1.0000
     1.0000   1.0000   1.0000   1.0000   1.0000   1.0000   1.0000   1.0000
     1.0000   1.0000   1.0000   1.0000   1.0000   0.0056   0.0056   0.0000
     0.0000   0.0000   0.0000   0.0000   0.0000   0.0000   0.0000   0.0000

          k = 0.0305 0.0305-0.0916 ( 24140 PWs)   bands (ev):

   -75.1500 -70.6422 -41.7857 -41.7580 -41.4578 -37.3021 -37.2655 -37.2062
    -4.8544  -4.8374   6.6528   6.9573   7.7138   8.2790   8.3661   9.1100
    10.4868  10.9195  11.4037  12.3208  12.5435  13.5441  14.8591  14.9130
    15.9546  15.9955  20.3251  20.7234  22.5754  23.1432  24.4461  24.5381

     occupation numbers 
     1.0000   1.0000   1.0000   1.0000   1.0000   1.0000   1.0000   1.0000
     1.0000   1.0000   1.0000   1.0000   1.0000   1.0000   1.0000   1.0000
     1.0000   1.0000   1.0000   1.0000   1.0000   1.0000   0.0000   0.0000
     0.0000   0.0000   0.0000   0.0000   0.0000   0.0000   0.0000   0.0000

          k = 0.0610-0.0610-0.0610 ( 24100 PWs)   bands (ev):

   -75.1500 -70.6422 -41.7857 -41.7580 -41.4578 -37.3020 -37.2655 -37.2061
    -4.8478  -4.8345   5.8273   7.0683   8.1131   8.1259   9.4235   9.4352
     9.9829  10.9100  11.3141  12.1691  12.3500  13.7838  14.8678  14.9032
    16.3157  16.3985  18.3784  19.8918  22.9227  22.9515  25.3802  26.8493

     occupation numbers 
     1.0000   1.0000   1.0000   1.0000   1.0000   1.0000   1.0000   1.0000
     1.0000   1.0000   1.0000   1.0000   1.0000   1.0000   1.0000   1.0000
     1.0000   1.0000   1.0000   1.0000   1.0000   1.0000   0.0000   0.0000
     0.0000   0.0000   0.0000   0.0000   0.0000   0.0000   0.0000   0.0000

          k =-0.0305-0.0305-0.0305 ( 24094 PWs)   bands (ev):

   -75.1534 -70.6464 -41.7488 -41.7488 -41.4632 -37.2537 -37.2537 -37.2138
    -5.4776  -5.4516   7.4540   7.8632   8.4067   8.4067   9.5501   9.5501
    10.5406  10.5406  11.1060  12.6757  12.6757  14.0111  14.1366  14.1366
    15.8398  15.8398  17.0068  17.3577  24.7659  25.1962  28.9632  28.9632

     occupation numbers 
     1.0000   1.0000   1.0000   1.0000   1.0000   1.0000   1.0000   1.0000
     1.0000   1.0000   1.0000   1.0000   1.0000   1.0000   1.0000   1.0000
     1.0000   1.0000   1.0000   1.0000   1.0000   0.9999   0.4945   0.4945
     0.0000   0.0000   0.0000   0.0000   0.0000   0.0000   0.0000   0.0000

 ------ SPIN DOWN ----------


          k = 0.0000 0.0000 0.0000 ( 24053 PWs)   bands (ev):

   -75.1534 -70.6464 -41.7488 -41.7488 -41.4633 -37.2537 -37.2537 -37.2135
    -6.0106  -4.8292   5.8077   8.0570   8.0570  10.4879  10.4879  10.5462
    10.5679  10.5679  10.8851  11.7718  11.7718  14.2068  14.2068  14.2935
    14.5680  16.1558  16.1558  18.4313  22.8688  26.9488  26.9488  29.2893

     occupation numbers 
     1.0000   1.0000   1.0000   1.0000   1.0000   1.0000   1.0000   1.0000
     1.0000   1.0000   1.0000   1.0000   1.0000   1.0000   1.0000   1.0000
     1.0000   1.0000   1.0000   1.0000   1.0000   0.0056   0.0056   0.0000
     0.0000   0.0000   0.0000   0.0000   0.0000   0.0000   0.0000   0.0000

          k = 0.0305 0.0305-0.0916 ( 24140 PWs)   bands (ev):

   -75.1500 -70.6422 -41.7857 -41.7580 -41.4578 -37.3021 -37.2655 -37.2062
    -4.8544  -4.8374   6.6528   6.9573   7.7138   8.2790   8.3661   9.1100
    10.4868  10.9195  11.4037  12.3208  12.5435  13.5441  14.8591  14.9130
    15.9546  15.9955  20.3251  20.7234  22.5754  23.1432  24.4461  24.5381

     occupation numbers 
     1.0000   1.0000   1.0000   1.0000   1.0000   1.0000   1.0000   1.0000
     1.0000   1.0000   1.0000   1.0000   1.0000   1.0000   1.0000   1.0000
     1.0000   1.0000   1.0000   1.0000   1.0000   1.0000   0.0000   0.0000
     0.0000   0.0000   0.0000   0.0000   0.0000   0.0000   0.0000   0.0000

          k = 0.0610-0.0610-0.0610 ( 24100 PWs)   bands (ev):

   -75.1500 -70.6422 -41.7857 -41.7580 -41.4578 -37.3020 -37.2655 -37.2061
    -4.8478  -4.8345   5.8273   7.0683   8.1131   8.1259   9.4235   9.4352
     9.9829  10.9100  11.3141  12.1691  12.3500  13.7839  14.8678  14.9032
    16.3158  16.3985  18.3784  19.8918  22.9227  22.9515  25.3802  26.8493

     occupation numbers 
     1.0000   1.0000   1.0000   1.0000   1.0000   1.0000   1.0000   1.0000
     1.0000   1.0000   1.0000   1.0000   1.0000   1.0000   1.0000   1.0000
     1.0000   1.0000   1.0000   1.0000   1.0000   1.0000   0.0000   0.0000
     0.0000   0.0000   0.0000   0.0000   0.0000   0.0000   0.0000   0.0000

          k =-0.0305-0.0305-0.0305 ( 24094 PWs)   bands (ev):

   -75.1534 -70.6464 -41.7488 -41.7488 -41.4632 -37.2537 -37.2537 -37.2138
    -5.4776  -5.4516   7.4540   7.8632   8.4067   8.4067   9.5501   9.5501
    10.5406  10.5406  11.1060  12.6757  12.6757  14.0111  14.1366  14.1366
    15.8398  15.8398  17.0068  17.3577  24.7659  25.1962  28.9632  28.9632

     occupation numbers 
     1.0000   1.0000   1.0000   1.0000   1.0000   1.0000   1.0000   1.0000
     1.0000   1.0000   1.0000   1.0000   1.0000   1.0000   1.0000   1.0000
     1.0000   1.0000   1.0000   1.0000   1.0000   0.9999   0.4945   0.4945
     0.0000   0.0000   0.0000   0.0000   0.0000   0.0000   0.0000   0.0000

     the spin up/dw Fermi energies are    14.1363   14.1363 ev

!    total energy              =    -559.10423364 Ry
     Harris-Foulkes estimate   =    -559.10423364 Ry
     estimated scf accuracy    <          9.5E-10 Ry

     total magnetization       =     0.00 Bohr mag/cell
     absolute magnetization    =     7.32 Bohr mag/cell

     convergence has been achieved in  29 iterations

     Using ACE for calculation of exact exchange
-------------------------------------------------------
Primary job  terminated normally, but 1 process returned
a non-zero exit code. Per user-direction, the job has been aborted.
-------------------------------------------------------
