
     Program PWSCF v.6.7MaX starts on 22Nov2021 at  9:19:13 

     This program is part of the open-source Quantum ESPRESSO suite
     for quantum simulation of materials; please cite
         "P. Giannozzi et al., J. Phys.:Condens. Matter 21 395502 (2009);
         "P. Giannozzi et al., J. Phys.:Condens. Matter 29 465901 (2017);
          URL http://www.quantum-espresso.org", 
     in publications or presentations arising from this work. More details at
     http://www.quantum-espresso.org/quote

     Parallel version (MPI), running on    48 processors

     MPI processes distributed on     1 nodes
     R & G space division:  proc/nbgrp/npool/nimage =      48
     Reading input from scf.in

     Current dimensions of program PWSCF are:
     Max number of different atomic species (ntypx) = 10
     Max number of k-points (npk) =  40000
     Max angular momentum in pseudopotentials (lmaxx) =  3
     Message from routine scan_end:
     No INFO block end statement, possibly corrupted file
     Message from routine scan_end:
     No INFO block end statement, possibly corrupted file
     Message from routine scan_end:
     No INFO block end statement, possibly corrupted file

     IMPORTANT: XC functional enforced from input :
     Exchange-correlation= PBE0
                           (   6   4   8   4   0   0   0)
     EXX-fraction              =        0.25
     Any further DFT definition will be discarded
     Please, verify this is what you really want


     Subspace diagonalization in iterative solution of the eigenvalue problem:
     one sub-group per band group will be used
     scalapack distributed-memory algorithm (size of sub-group:  6*  6 procs)

     EXX: q-point mesh:     1    1    1
     EXX: grid of k+q points same as grid of k-points
 
     Parallelization info
     --------------------
     sticks:   dense  smooth     PW     G-vecs:    dense   smooth      PW
     Min         336     336     83                32092    32092    4005
     Max         337     337     84                32097    32097    4012
     Sum       16141   16141   4025              1540499  1540499  192431
 


     bravais-lattice index     =            1
     lattice parameter (alat)  =       7.9576  a.u.
     unit-cell volume          =     503.9013 (a.u.)^3
     number of atoms/cell      =            8
     number of atomic types    =            3
     number of electrons       =        46.00 (up:  25.00, down:  21.00)
     number of Kohn-Sham states=           32
     kinetic-energy cutoff     =     800.0000  Ry
     charge density cutoff     =    3200.0000  Ry
     cutoff for Fock operator  =    3200.0000  Ry
     scf convergence threshold =      1.0E-08
     mixing beta               =       0.2000
     number of iterations used =            8  plain     mixing
     Exchange-correlation= PBE0
                           (   6   4   8   4   0   0   0)
     EXX-fraction              =        0.25

     celldm(1)=   7.957595  celldm(2)=   0.000000  celldm(3)=   0.000000
     celldm(4)=   0.000000  celldm(5)=   0.000000  celldm(6)=   0.000000

     crystal axes: (cart. coord. in units of alat)
               a(1) = (   1.000000   0.000000   0.000000 )  
               a(2) = (   0.000000   1.000000   0.000000 )  
               a(3) = (   0.000000   0.000000   1.000000 )  

     reciprocal axes: (cart. coord. in units 2 pi/alat)
               b(1) = (  1.000000  0.000000  0.000000 )  
               b(2) = (  0.000000  1.000000  0.000000 )  
               b(3) = (  0.000000  0.000000  1.000000 )  


     PseudoPot. # 1 for Fe read from file:
     /ascldap/users/jptowns/ferropericlase_spintransition/pseudos/Fe.ccECP.upf
     MD5 check sum: 375ee7e2ce333dc2f1485c86089d969e
     Pseudo is Norm-conserving, Zval = 16.0
     Generated by new atomic code, or converted to UPF format
     Using radial grid of 1160 points,  2 beta functions with: 
                l(1) =   1
                l(2) =   2

     PseudoPot. # 2 for Mg read from file:
     /ascldap/users/jptowns/ferropericlase_spintransition/pseudos/Mg.ccECP.upf
     MD5 check sum: 94218cb30fa6b3f6810c07405bb1118c
     Pseudo is Norm-conserving, Zval =  2.0
     Generated by new atomic code, or converted to UPF format
     Using radial grid of 1140 points,  2 beta functions with: 
                l(1) =   0
                l(2) =   2

     PseudoPot. # 3 for O  read from file:
     /ascldap/users/jptowns/ferropericlase_spintransition/pseudos/O.ccECP.upf
     MD5 check sum: f8511452b848d8673c004e477b4fc277
     Pseudo is Norm-conserving, Zval =  6.0
     Generated by new atomic code, or converted to UPF format
     Using radial grid of 1130 points,  1 beta functions with: 
                l(1) =   0

     atomic species   valence    mass     pseudopotential
        Fe            16.00    55.84500     Fe( 1.00)
        Mg             2.00    24.30500     Mg( 1.00)
        O              6.00    15.99900     O ( 1.00)

     Starting magnetic structure 
     atomic species   magnetization
        Fe           0.833
        Mg           0.000
        O            0.000

     48 Sym. Ops., with inversion, found


                                    s                        frac. trans.

      isym =  1     identity                                     

 cryst.   s( 1) = (     1          0          0      )
                  (     0          1          0      )
                  (     0          0          1      )

 cart.    s( 1) = (  1.0000000  0.0000000  0.0000000 )
                  (  0.0000000  1.0000000  0.0000000 )
                  (  0.0000000  0.0000000  1.0000000 )


      isym =  2     180 deg rotation - cart. axis [0,0,1]        

 cryst.   s( 2) = (    -1          0          0      )
                  (     0         -1          0      )
                  (     0          0          1      )

 cart.    s( 2) = ( -1.0000000  0.0000000  0.0000000 )
                  (  0.0000000 -1.0000000  0.0000000 )
                  (  0.0000000  0.0000000  1.0000000 )


      isym =  3     180 deg rotation - cart. axis [0,1,0]        

 cryst.   s( 3) = (    -1          0          0      )
                  (     0          1          0      )
                  (     0          0         -1      )

 cart.    s( 3) = ( -1.0000000  0.0000000  0.0000000 )
                  (  0.0000000  1.0000000  0.0000000 )
                  (  0.0000000  0.0000000 -1.0000000 )


      isym =  4     180 deg rotation - cart. axis [1,0,0]        

 cryst.   s( 4) = (     1          0          0      )
                  (     0         -1          0      )
                  (     0          0         -1      )

 cart.    s( 4) = (  1.0000000  0.0000000  0.0000000 )
                  (  0.0000000 -1.0000000  0.0000000 )
                  (  0.0000000  0.0000000 -1.0000000 )


      isym =  5     180 deg rotation - cart. axis [1,1,0]        

 cryst.   s( 5) = (     0          1          0      )
                  (     1          0          0      )
                  (     0          0         -1      )

 cart.    s( 5) = (  0.0000000  1.0000000  0.0000000 )
                  (  1.0000000  0.0000000  0.0000000 )
                  (  0.0000000  0.0000000 -1.0000000 )


      isym =  6     180 deg rotation - cart. axis [1,-1,0]       

 cryst.   s( 6) = (     0         -1          0      )
                  (    -1          0          0      )
                  (     0          0         -1      )

 cart.    s( 6) = (  0.0000000 -1.0000000  0.0000000 )
                  ( -1.0000000  0.0000000  0.0000000 )
                  (  0.0000000  0.0000000 -1.0000000 )


      isym =  7      90 deg rotation - cart. axis [0,0,-1]       

 cryst.   s( 7) = (     0         -1          0      )
                  (     1          0          0      )
                  (     0          0          1      )

 cart.    s( 7) = (  0.0000000  1.0000000  0.0000000 )
                  ( -1.0000000  0.0000000  0.0000000 )
                  (  0.0000000  0.0000000  1.0000000 )


      isym =  8      90 deg rotation - cart. axis [0,0,1]        

 cryst.   s( 8) = (     0          1          0      )
                  (    -1          0          0      )
                  (     0          0          1      )

 cart.    s( 8) = (  0.0000000 -1.0000000  0.0000000 )
                  (  1.0000000  0.0000000  0.0000000 )
                  (  0.0000000  0.0000000  1.0000000 )


      isym =  9     180 deg rotation - cart. axis [1,0,1]        

 cryst.   s( 9) = (     0          0          1      )
                  (     0         -1          0      )
                  (     1          0          0      )

 cart.    s( 9) = (  0.0000000  0.0000000  1.0000000 )
                  (  0.0000000 -1.0000000  0.0000000 )
                  (  1.0000000  0.0000000  0.0000000 )


      isym = 10     180 deg rotation - cart. axis [-1,0,1]       

 cryst.   s(10) = (     0          0         -1      )
                  (     0         -1          0      )
                  (    -1          0          0      )

 cart.    s(10) = (  0.0000000  0.0000000 -1.0000000 )
                  (  0.0000000 -1.0000000  0.0000000 )
                  ( -1.0000000  0.0000000  0.0000000 )


      isym = 11      90 deg rotation - cart. axis [0,1,0]        

 cryst.   s(11) = (     0          0         -1      )
                  (     0          1          0      )
                  (     1          0          0      )

 cart.    s(11) = (  0.0000000  0.0000000  1.0000000 )
                  (  0.0000000  1.0000000  0.0000000 )
                  ( -1.0000000  0.0000000  0.0000000 )


      isym = 12      90 deg rotation - cart. axis [0,-1,0]       

 cryst.   s(12) = (     0          0          1      )
                  (     0          1          0      )
                  (    -1          0          0      )

 cart.    s(12) = (  0.0000000  0.0000000 -1.0000000 )
                  (  0.0000000  1.0000000  0.0000000 )
                  (  1.0000000  0.0000000  0.0000000 )


      isym = 13     180 deg rotation - cart. axis [0,1,1]        

 cryst.   s(13) = (    -1          0          0      )
                  (     0          0          1      )
                  (     0          1          0      )

 cart.    s(13) = ( -1.0000000  0.0000000  0.0000000 )
                  (  0.0000000  0.0000000  1.0000000 )
                  (  0.0000000  1.0000000  0.0000000 )


      isym = 14     180 deg rotation - cart. axis [0,1,-1]       

 cryst.   s(14) = (    -1          0          0      )
                  (     0          0         -1      )
                  (     0         -1          0      )

 cart.    s(14) = ( -1.0000000  0.0000000  0.0000000 )
                  (  0.0000000  0.0000000 -1.0000000 )
                  (  0.0000000 -1.0000000  0.0000000 )


      isym = 15      90 deg rotation - cart. axis [-1,0,0]       

 cryst.   s(15) = (     1          0          0      )
                  (     0          0         -1      )
                  (     0          1          0      )

 cart.    s(15) = (  1.0000000  0.0000000  0.0000000 )
                  (  0.0000000  0.0000000  1.0000000 )
                  (  0.0000000 -1.0000000  0.0000000 )


      isym = 16      90 deg rotation - cart. axis [1,0,0]        

 cryst.   s(16) = (     1          0          0      )
                  (     0          0          1      )
                  (     0         -1          0      )

 cart.    s(16) = (  1.0000000  0.0000000  0.0000000 )
                  (  0.0000000  0.0000000 -1.0000000 )
                  (  0.0000000  1.0000000  0.0000000 )


      isym = 17     120 deg rotation - cart. axis [-1,-1,-1]     

 cryst.   s(17) = (     0          0          1      )
                  (     1          0          0      )
                  (     0          1          0      )

 cart.    s(17) = (  0.0000000  1.0000000  0.0000000 )
                  (  0.0000000  0.0000000  1.0000000 )
                  (  1.0000000  0.0000000  0.0000000 )


      isym = 18     120 deg rotation - cart. axis [-1,1,1]       

 cryst.   s(18) = (     0          0         -1      )
                  (    -1          0          0      )
                  (     0          1          0      )

 cart.    s(18) = (  0.0000000 -1.0000000  0.0000000 )
                  (  0.0000000  0.0000000  1.0000000 )
                  ( -1.0000000  0.0000000  0.0000000 )


      isym = 19     120 deg rotation - cart. axis [1,1,-1]       

 cryst.   s(19) = (     0          0         -1      )
                  (     1          0          0      )
                  (     0         -1          0      )

 cart.    s(19) = (  0.0000000  1.0000000  0.0000000 )
                  (  0.0000000  0.0000000 -1.0000000 )
                  ( -1.0000000  0.0000000  0.0000000 )


      isym = 20     120 deg rotation - cart. axis [1,-1,1]       

 cryst.   s(20) = (     0          0          1      )
                  (    -1          0          0      )
                  (     0         -1          0      )

 cart.    s(20) = (  0.0000000 -1.0000000  0.0000000 )
                  (  0.0000000  0.0000000 -1.0000000 )
                  (  1.0000000  0.0000000  0.0000000 )


      isym = 21     120 deg rotation - cart. axis [1,1,1]        

 cryst.   s(21) = (     0          1          0      )
                  (     0          0          1      )
                  (     1          0          0      )

 cart.    s(21) = (  0.0000000  0.0000000  1.0000000 )
                  (  1.0000000  0.0000000  0.0000000 )
                  (  0.0000000  1.0000000  0.0000000 )


      isym = 22     120 deg rotation - cart. axis [-1,1,-1]      

 cryst.   s(22) = (     0         -1          0      )
                  (     0          0         -1      )
                  (     1          0          0      )

 cart.    s(22) = (  0.0000000  0.0000000  1.0000000 )
                  ( -1.0000000  0.0000000  0.0000000 )
                  (  0.0000000 -1.0000000  0.0000000 )


      isym = 23     120 deg rotation - cart. axis [1,-1,-1]      

 cryst.   s(23) = (     0         -1          0      )
                  (     0          0          1      )
                  (    -1          0          0      )

 cart.    s(23) = (  0.0000000  0.0000000 -1.0000000 )
                  ( -1.0000000  0.0000000  0.0000000 )
                  (  0.0000000  1.0000000  0.0000000 )


      isym = 24     120 deg rotation - cart. axis [-1,-1,1]      

 cryst.   s(24) = (     0          1          0      )
                  (     0          0         -1      )
                  (    -1          0          0      )

 cart.    s(24) = (  0.0000000  0.0000000 -1.0000000 )
                  (  1.0000000  0.0000000  0.0000000 )
                  (  0.0000000 -1.0000000  0.0000000 )


      isym = 25     inversion                                    

 cryst.   s(25) = (    -1          0          0      )
                  (     0         -1          0      )
                  (     0          0         -1      )

 cart.    s(25) = ( -1.0000000  0.0000000  0.0000000 )
                  (  0.0000000 -1.0000000  0.0000000 )
                  (  0.0000000  0.0000000 -1.0000000 )


      isym = 26     inv. 180 deg rotation - cart. axis [0,0,1]   

 cryst.   s(26) = (     1          0          0      )
                  (     0          1          0      )
                  (     0          0         -1      )

 cart.    s(26) = (  1.0000000  0.0000000  0.0000000 )
                  (  0.0000000  1.0000000  0.0000000 )
                  (  0.0000000  0.0000000 -1.0000000 )


      isym = 27     inv. 180 deg rotation - cart. axis [0,1,0]   

 cryst.   s(27) = (     1          0          0      )
                  (     0         -1          0      )
                  (     0          0          1      )

 cart.    s(27) = (  1.0000000  0.0000000  0.0000000 )
                  (  0.0000000 -1.0000000  0.0000000 )
                  (  0.0000000  0.0000000  1.0000000 )


      isym = 28     inv. 180 deg rotation - cart. axis [1,0,0]   

 cryst.   s(28) = (    -1          0          0      )
                  (     0          1          0      )
                  (     0          0          1      )

 cart.    s(28) = ( -1.0000000  0.0000000  0.0000000 )
                  (  0.0000000  1.0000000  0.0000000 )
                  (  0.0000000  0.0000000  1.0000000 )


      isym = 29     inv. 180 deg rotation - cart. axis [1,1,0]   

 cryst.   s(29) = (     0         -1          0      )
                  (    -1          0          0      )
                  (     0          0          1      )

 cart.    s(29) = (  0.0000000 -1.0000000  0.0000000 )
                  ( -1.0000000  0.0000000  0.0000000 )
                  (  0.0000000  0.0000000  1.0000000 )


      isym = 30     inv. 180 deg rotation - cart. axis [1,-1,0]  

 cryst.   s(30) = (     0          1          0      )
                  (     1          0          0      )
                  (     0          0          1      )

 cart.    s(30) = (  0.0000000  1.0000000  0.0000000 )
                  (  1.0000000  0.0000000  0.0000000 )
                  (  0.0000000  0.0000000  1.0000000 )


      isym = 31     inv.  90 deg rotation - cart. axis [0,0,-1]  

 cryst.   s(31) = (     0          1          0      )
                  (    -1          0          0      )
                  (     0          0         -1      )

 cart.    s(31) = (  0.0000000 -1.0000000  0.0000000 )
                  (  1.0000000  0.0000000  0.0000000 )
                  (  0.0000000  0.0000000 -1.0000000 )


      isym = 32     inv.  90 deg rotation - cart. axis [0,0,1]   

 cryst.   s(32) = (     0         -1          0      )
                  (     1          0          0      )
                  (     0          0         -1      )

 cart.    s(32) = (  0.0000000  1.0000000  0.0000000 )
                  ( -1.0000000  0.0000000  0.0000000 )
                  (  0.0000000  0.0000000 -1.0000000 )


      isym = 33     inv. 180 deg rotation - cart. axis [1,0,1]   

 cryst.   s(33) = (     0          0         -1      )
                  (     0          1          0      )
                  (    -1          0          0      )

 cart.    s(33) = (  0.0000000  0.0000000 -1.0000000 )
                  (  0.0000000  1.0000000  0.0000000 )
                  ( -1.0000000  0.0000000  0.0000000 )


      isym = 34     inv. 180 deg rotation - cart. axis [-1,0,1]  

 cryst.   s(34) = (     0          0          1      )
                  (     0          1          0      )
                  (     1          0          0      )

 cart.    s(34) = (  0.0000000  0.0000000  1.0000000 )
                  (  0.0000000  1.0000000  0.0000000 )
                  (  1.0000000  0.0000000  0.0000000 )


      isym = 35     inv.  90 deg rotation - cart. axis [0,1,0]   

 cryst.   s(35) = (     0          0          1      )
                  (     0         -1          0      )
                  (    -1          0          0      )

 cart.    s(35) = (  0.0000000  0.0000000 -1.0000000 )
                  (  0.0000000 -1.0000000  0.0000000 )
                  (  1.0000000  0.0000000  0.0000000 )


      isym = 36     inv.  90 deg rotation - cart. axis [0,-1,0]  

 cryst.   s(36) = (     0          0         -1      )
                  (     0         -1          0      )
                  (     1          0          0      )

 cart.    s(36) = (  0.0000000  0.0000000  1.0000000 )
                  (  0.0000000 -1.0000000  0.0000000 )
                  ( -1.0000000  0.0000000  0.0000000 )


      isym = 37     inv. 180 deg rotation - cart. axis [0,1,1]   

 cryst.   s(37) = (     1          0          0      )
                  (     0          0         -1      )
                  (     0         -1          0      )

 cart.    s(37) = (  1.0000000  0.0000000  0.0000000 )
                  (  0.0000000  0.0000000 -1.0000000 )
                  (  0.0000000 -1.0000000  0.0000000 )


      isym = 38     inv. 180 deg rotation - cart. axis [0,1,-1]  

 cryst.   s(38) = (     1          0          0      )
                  (     0          0          1      )
                  (     0          1          0      )

 cart.    s(38) = (  1.0000000  0.0000000  0.0000000 )
                  (  0.0000000  0.0000000  1.0000000 )
                  (  0.0000000  1.0000000  0.0000000 )


      isym = 39     inv.  90 deg rotation - cart. axis [-1,0,0]  

 cryst.   s(39) = (    -1          0          0      )
                  (     0          0          1      )
                  (     0         -1          0      )

 cart.    s(39) = ( -1.0000000  0.0000000  0.0000000 )
                  (  0.0000000  0.0000000 -1.0000000 )
                  (  0.0000000  1.0000000  0.0000000 )


      isym = 40     inv.  90 deg rotation - cart. axis [1,0,0]   

 cryst.   s(40) = (    -1          0          0      )
                  (     0          0         -1      )
                  (     0          1          0      )

 cart.    s(40) = ( -1.0000000  0.0000000  0.0000000 )
                  (  0.0000000  0.0000000  1.0000000 )
                  (  0.0000000 -1.0000000  0.0000000 )


      isym = 41     inv. 120 deg rotation - cart. axis [-1,-1,-1]

 cryst.   s(41) = (     0          0         -1      )
                  (    -1          0          0      )
                  (     0         -1          0      )

 cart.    s(41) = (  0.0000000 -1.0000000  0.0000000 )
                  (  0.0000000  0.0000000 -1.0000000 )
                  ( -1.0000000  0.0000000  0.0000000 )


      isym = 42     inv. 120 deg rotation - cart. axis [-1,1,1]  

 cryst.   s(42) = (     0          0          1      )
                  (     1          0          0      )
                  (     0         -1          0      )

 cart.    s(42) = (  0.0000000  1.0000000  0.0000000 )
                  (  0.0000000  0.0000000 -1.0000000 )
                  (  1.0000000  0.0000000  0.0000000 )


      isym = 43     inv. 120 deg rotation - cart. axis [1,1,-1]  

 cryst.   s(43) = (     0          0          1      )
                  (    -1          0          0      )
                  (     0          1          0      )

 cart.    s(43) = (  0.0000000 -1.0000000  0.0000000 )
                  (  0.0000000  0.0000000  1.0000000 )
                  (  1.0000000  0.0000000  0.0000000 )


      isym = 44     inv. 120 deg rotation - cart. axis [1,-1,1]  

 cryst.   s(44) = (     0          0         -1      )
                  (     1          0          0      )
                  (     0          1          0      )

 cart.    s(44) = (  0.0000000  1.0000000  0.0000000 )
                  (  0.0000000  0.0000000  1.0000000 )
                  ( -1.0000000  0.0000000  0.0000000 )


      isym = 45     inv. 120 deg rotation - cart. axis [1,1,1]   

 cryst.   s(45) = (     0         -1          0      )
                  (     0          0         -1      )
                  (    -1          0          0      )

 cart.    s(45) = (  0.0000000  0.0000000 -1.0000000 )
                  ( -1.0000000  0.0000000  0.0000000 )
                  (  0.0000000 -1.0000000  0.0000000 )


      isym = 46     inv. 120 deg rotation - cart. axis [-1,1,-1] 

 cryst.   s(46) = (     0          1          0      )
                  (     0          0          1      )
                  (    -1          0          0      )

 cart.    s(46) = (  0.0000000  0.0000000 -1.0000000 )
                  (  1.0000000  0.0000000  0.0000000 )
                  (  0.0000000  1.0000000  0.0000000 )


      isym = 47     inv. 120 deg rotation - cart. axis [1,-1,-1] 

 cryst.   s(47) = (     0          1          0      )
                  (     0          0         -1      )
                  (     1          0          0      )

 cart.    s(47) = (  0.0000000  0.0000000  1.0000000 )
                  (  1.0000000  0.0000000  0.0000000 )
                  (  0.0000000 -1.0000000  0.0000000 )


      isym = 48     inv. 120 deg rotation - cart. axis [-1,-1,1] 

 cryst.   s(48) = (     0         -1          0      )
                  (     0          0          1      )
                  (     1          0          0      )

 cart.    s(48) = (  0.0000000  0.0000000  1.0000000 )
                  ( -1.0000000  0.0000000  0.0000000 )
                  (  0.0000000  1.0000000  0.0000000 )


     point group O_h (m-3m) 
     there are 10 classes
     the character table:

       E     8C3   3C2   6C4   6C2'  i     8S6   3s_h  6S4   6s_d 
A_1g   1.00  1.00  1.00  1.00  1.00  1.00  1.00  1.00  1.00  1.00
A_2g   1.00  1.00  1.00 -1.00 -1.00  1.00  1.00  1.00 -1.00 -1.00
E_g    2.00 -1.00  2.00  0.00  0.00  2.00 -1.00  2.00  0.00  0.00
T_1g   3.00  0.00 -1.00  1.00 -1.00  3.00  0.00 -1.00  1.00 -1.00
T_2g   3.00  0.00 -1.00 -1.00  1.00  3.00  0.00 -1.00 -1.00  1.00
A_1u   1.00  1.00  1.00  1.00  1.00 -1.00 -1.00 -1.00 -1.00 -1.00
A_2u   1.00  1.00  1.00 -1.00 -1.00 -1.00 -1.00 -1.00  1.00  1.00
E_u    2.00 -1.00  2.00  0.00  0.00 -2.00  1.00 -2.00  0.00  0.00
T_1u   3.00  0.00 -1.00  1.00 -1.00 -3.00  0.00  1.00 -1.00  1.00
T_2u   3.00  0.00 -1.00 -1.00  1.00 -3.00  0.00  1.00  1.00 -1.00

     the symmetry operations in each class and the name of the first element:

     E        1
          identity                                               
     8C3     17   19   20   18   24   21   22   23
          120 deg rotation - cart. axis [-1,-1,-1]               
     3C2      2    4    3
          180 deg rotation - cart. axis [0,0,1]                  
     6C4      7    8   15   16   12   11
           90 deg rotation - cart. axis [0,0,-1]                 
     6C2'     5    6   14   13   10    9
          180 deg rotation - cart. axis [1,1,0]                  
     i       25
          inversion                                              
     8S6     41   43   44   42   48   45   46   47
          inv. 120 deg rotation - cart. axis [-1,-1,-1]          
     3s_h    26   28   27
          inv. 180 deg rotation - cart. axis [0,0,1]             
     6S4     31   32   39   40   36   35
          inv.  90 deg rotation - cart. axis [0,0,-1]            
     6s_d    29   30   38   37   34   33
          inv. 180 deg rotation - cart. axis [1,1,0]             

   Cartesian axes

     site n.     atom                  positions (alat units)
         1           Fe  tau(   1) = (   0.0000000   0.0000000   0.0000000  )
         2           Mg  tau(   2) = (   0.0000000   0.5000000   0.5000000  )
         3           Mg  tau(   3) = (   0.5000000   0.0000000   0.5000000  )
         4           Mg  tau(   4) = (   0.5000000   0.5000000   0.0000000  )
         5           O   tau(   5) = (   0.5000000   0.5000000   0.5000000  )
         6           O   tau(   6) = (   0.5000000   0.0000000   0.0000000  )
         7           O   tau(   7) = (   0.0000000   0.5000000   0.0000000  )
         8           O   tau(   8) = (   0.0000000   0.0000000   0.5000000  )

   Crystallographic axes

     site n.     atom                  positions (cryst. coord.)
         1           Fe  tau(   1) = (  0.0000000  0.0000000  0.0000000  )
         2           Mg  tau(   2) = (  0.0000000  0.5000000  0.5000000  )
         3           Mg  tau(   3) = (  0.5000000  0.0000000  0.5000000  )
         4           Mg  tau(   4) = (  0.5000000  0.5000000  0.0000000  )
         5           O   tau(   5) = (  0.5000000  0.5000000  0.5000000  )
         6           O   tau(   6) = (  0.5000000  0.0000000  0.0000000  )
         7           O   tau(   7) = (  0.0000000  0.5000000  0.0000000  )
         8           O   tau(   8) = (  0.0000000  0.0000000  0.5000000  )

     number of k points=     1  Fermi-Dirac smearing, width (Ry)=  0.0019
                       cart. coord. in units 2pi/alat
        k(    1) = (   0.0000000   0.0000000   0.0000000), wk =   1.0000000

                       cryst. coord.
        k(    1) = (   0.0000000   0.0000000   0.0000000), wk =   1.0000000

     Dense  grid:  1540499 G-vectors     FFT dimensions: ( 144, 144, 144)

     Dynamical RAM for                 wfc:       1.96 MB

     Dynamical RAM for     wfc (w. buffer):       5.88 MB

     Dynamical RAM for                 EXX:     162.57 MB

     Dynamical RAM for           str. fact:       1.47 MB

     Dynamical RAM for           local pot:       0.00 MB

     Dynamical RAM for          nlocal pot:       1.84 MB

     Dynamical RAM for                qrad:       1.94 MB

     Dynamical RAM for          rho,v,vnew:       5.79 MB

     Dynamical RAM for               rhoin:       1.93 MB

     Dynamical RAM for            rho*nmix:      15.67 MB

     Dynamical RAM for           G-vectors:       2.08 MB

     Dynamical RAM for          h,s,v(r/c):       0.00 MB

     Dynamical RAM for          <psi|beta>:       0.01 MB

     Dynamical RAM for                 psi:       3.92 MB

     Dynamical RAM for                hpsi:       3.92 MB

     Dynamical RAM for      wfcinit/wfcrot:       6.43 MB

     Estimated static dynamical RAM per process >     203.97 MB

     Estimated max dynamical RAM per process >     211.82 MB

     Estimated total dynamical RAM >       9.93 GB
     Generating pointlists ...
     new r_m :   0.2063 (alat units)  1.6413 (a.u.) for type    1
     new r_m :   0.2063 (alat units)  1.6413 (a.u.) for type    2
     new r_m :   0.2063 (alat units)  1.6413 (a.u.) for type    3

     The initial density is read from file :
     pwscf_output/pwscf.save/charge-density

     Starting wfcs are   52 randomized atomic wfcs

     total cpu time spent up to now is        3.9 secs

     Self-consistent Calculation

     iteration #  1     ecut=   800.00 Ry     beta= 0.20
     Davidson diagonalization with overlap
     ethr =  1.00E-05,  avg # of iterations = 18.0

     total cpu time spent up to now is        6.2 secs

     total energy              =    -381.66395537 Ry
     estimated scf accuracy    <       0.00259597 Ry

     total magnetization       =     4.00 Bohr mag/cell
     absolute magnetization    =     4.06 Bohr mag/cell

     iteration #  2     ecut=   800.00 Ry     beta= 0.20
     Davidson diagonalization with overlap
     ethr =  5.64E-06,  avg # of iterations =  2.0

     total cpu time spent up to now is        6.9 secs

     total energy              =    -381.66382450 Ry
     estimated scf accuracy    <       0.00104802 Ry

     total magnetization       =     4.00 Bohr mag/cell
     absolute magnetization    =     4.06 Bohr mag/cell

     iteration #  3     ecut=   800.00 Ry     beta= 0.20
     Davidson diagonalization with overlap
     ethr =  2.28E-06,  avg # of iterations =  2.0

     total cpu time spent up to now is        7.6 secs

     total energy              =    -381.66386555 Ry
     estimated scf accuracy    <       0.00025186 Ry

     total magnetization       =     4.00 Bohr mag/cell
     absolute magnetization    =     4.06 Bohr mag/cell

     iteration #  4     ecut=   800.00 Ry     beta= 0.20
     Davidson diagonalization with overlap
     ethr =  5.48E-07,  avg # of iterations =  1.0

     total cpu time spent up to now is        8.3 secs

     total energy              =    -381.66387390 Ry
     estimated scf accuracy    <       0.00000298 Ry

     total magnetization       =     4.00 Bohr mag/cell
     absolute magnetization    =     4.06 Bohr mag/cell

     iteration #  5     ecut=   800.00 Ry     beta= 0.20
     Davidson diagonalization with overlap
     ethr =  6.48E-09,  avg # of iterations =  4.0

     total cpu time spent up to now is        9.1 secs

     total energy              =    -381.66387509 Ry
     estimated scf accuracy    <       0.00000102 Ry

     total magnetization       =     4.00 Bohr mag/cell
     absolute magnetization    =     4.06 Bohr mag/cell

     iteration #  6     ecut=   800.00 Ry     beta= 0.20
     Davidson diagonalization with overlap
     ethr =  2.21E-09,  avg # of iterations =  2.0

     total cpu time spent up to now is        9.9 secs

     total energy              =    -381.66387525 Ry
     estimated scf accuracy    <       0.00000017 Ry

     total magnetization       =     4.00 Bohr mag/cell
     absolute magnetization    =     4.06 Bohr mag/cell

     iteration #  7     ecut=   800.00 Ry     beta= 0.20
     Davidson diagonalization with overlap
     ethr =  3.73E-10,  avg # of iterations =  2.0

     total cpu time spent up to now is       10.6 secs

     total energy              =    -381.66387529 Ry
     estimated scf accuracy    <       0.00000010 Ry

     total magnetization       =     4.00 Bohr mag/cell
     absolute magnetization    =     4.06 Bohr mag/cell

     iteration #  8     ecut=   800.00 Ry     beta= 0.20
     Davidson diagonalization with overlap
     ethr =  2.21E-10,  avg # of iterations =  2.0

     total cpu time spent up to now is       11.4 secs

     total energy              =    -381.66387530 Ry
     estimated scf accuracy    <       0.00000002 Ry

     total magnetization       =     4.00 Bohr mag/cell
     absolute magnetization    =     4.06 Bohr mag/cell

     iteration #  9     ecut=   800.00 Ry     beta= 0.20
     Davidson diagonalization with overlap
     ethr =  3.90E-11,  avg # of iterations =  3.5

     total cpu time spent up to now is       12.3 secs

     total energy              =    -381.66387531 Ry
     estimated scf accuracy    <       0.00000004 Ry

     total magnetization       =     4.00 Bohr mag/cell
     absolute magnetization    =     4.06 Bohr mag/cell

     iteration # 10     ecut=   800.00 Ry     beta= 0.20
     Davidson diagonalization with overlap
     ethr =  3.90E-11,  avg # of iterations =  1.0

     total cpu time spent up to now is       12.9 secs

     total energy              =    -381.66387530 Ry
     estimated scf accuracy    <       0.00000003 Ry

     total magnetization       =     4.00 Bohr mag/cell
     absolute magnetization    =     4.06 Bohr mag/cell

     iteration # 11     ecut=   800.00 Ry     beta= 0.20
     Davidson diagonalization with overlap
     ethr =  3.90E-11,  avg # of iterations =  2.0
 
     Magnetic moment per site:
     atom:    1    charge:   13.3172    magn:    3.6071    constr:    0.0000
     atom:    2    charge:    0.2260    magn:   -0.0000    constr:    0.0000
     atom:    3    charge:    0.2260    magn:   -0.0000    constr:    0.0000
     atom:    4    charge:    0.2260    magn:   -0.0000    constr:    0.0000
     atom:    5    charge:    5.9303    magn:    0.0004    constr:    0.0000
     atom:    6    charge:    5.9380    magn:    0.0029    constr:    0.0000
     atom:    7    charge:    5.9380    magn:    0.0029    constr:    0.0000
     atom:    8    charge:    5.9380    magn:    0.0029    constr:    0.0000

     total cpu time spent up to now is       13.7 secs

     End of self-consistent calculation

 ------ SPIN UP ------------


          k = 0.0000 0.0000 0.0000 (192431 PWs)   bands (ev):

   -81.2684 -46.8124 -46.8124 -46.8124  -9.4611  -7.9849  -7.9849  -7.6765
     3.6503   3.6503   3.6503   4.8851   4.8851   4.8851   5.2022   5.2022
     6.6066   6.6066   6.6066   6.6146   6.6146   6.6146   8.0921   8.0921
     8.0921  12.1707  16.5368  17.8186  17.8186  17.8186  18.0039  18.0039

     occupation numbers 
     1.0000   1.0000   1.0000   1.0000   1.0000   1.0000   1.0000   1.0000
     1.0000   1.0000   1.0000   1.0000   1.0000   1.0000   1.0000   1.0000
     1.0000   1.0000   1.0000   1.0000   1.0000   1.0000   1.0000   1.0000
     1.0000   0.0000   0.0000   0.0000   0.0000   0.0000   0.0000   0.0000

 ------ SPIN DOWN ----------


          k = 0.0000 0.0000 0.0000 (192431 PWs)   bands (ev):

   -76.4859 -42.0828 -42.0828 -42.0828  -9.4134  -7.9271  -7.9271  -7.6643
     3.7492   3.7492   3.7492   6.6305   6.6305   6.6305   6.6755   6.6755
     6.6755   8.1014   8.1014   8.1014   8.5529   8.5529   8.5529  10.4208
    10.4208  12.5402  17.6239  18.0116  18.0116  18.1845  18.1845  18.1845

     occupation numbers 
     1.0000   1.0000   1.0000   1.0000   1.0000   1.0000   1.0000   1.0000
     1.0000   1.0000   1.0000   1.0000   1.0000   1.0000   1.0000   1.0000
     1.0000   1.0000   1.0000   1.0000   0.3333   0.3333   0.3333   0.0000
     0.0000   0.0000   0.0000   0.0000   0.0000   0.0000   0.0000   0.0000

     the spin up/dw Fermi energies are     8.9028    8.5350 ev

!    total energy              =    -381.66387530 Ry
     estimated scf accuracy    <          6.7E-10 Ry
     smearing contrib. (-TS)   =      -0.00362814 Ry
     internal energy E=F+TS    =    -381.66024717 Ry

     total magnetization       =     4.00 Bohr mag/cell
     absolute magnetization    =     4.06 Bohr mag/cell

     convergence has been achieved in  11 iterations

     Using ACE for calculation of exact exchange

     EXX grid:  1540499 G-vectors     FFT dimensions: ( 144, 144, 144)

     EXX: now go back to refine exchange calculation

     total cpu time spent up to now is       34.6 secs

     Self-consistent Calculation

     iteration #  1     ecut=   800.00 Ry     beta= 0.20
     Davidson diagonalization with overlap
     ethr =  3.90E-11,  avg # of iterations = 11.0

     total cpu time spent up to now is       37.0 secs

     total energy              =    -381.49958000 Ry
     estimated scf accuracy    <       0.00146109 Ry

     total magnetization       =     4.00 Bohr mag/cell
     absolute magnetization    =     4.09 Bohr mag/cell

     iteration #  2     ecut=   800.00 Ry     beta= 0.20
     Davidson diagonalization with overlap
     ethr =  3.18E-06,  avg # of iterations =  1.0

     total cpu time spent up to now is       37.6 secs

     total energy              =    -381.49949398 Ry
     estimated scf accuracy    <       0.00081671 Ry

     total magnetization       =     4.00 Bohr mag/cell
     absolute magnetization    =     4.09 Bohr mag/cell

     iteration #  3     ecut=   800.00 Ry     beta= 0.20
     Davidson diagonalization with overlap
     ethr =  1.78E-06,  avg # of iterations =  1.5

     total cpu time spent up to now is       38.3 secs

     total energy              =    -381.49953822 Ry
     estimated scf accuracy    <       0.00016629 Ry

     total magnetization       =     4.00 Bohr mag/cell
     absolute magnetization    =     4.09 Bohr mag/cell

     iteration #  4     ecut=   800.00 Ry     beta= 0.20
     Davidson diagonalization with overlap
     ethr =  3.62E-07,  avg # of iterations =  1.5

     total cpu time spent up to now is       39.0 secs

     total energy              =    -381.49955131 Ry
     estimated scf accuracy    <       0.00000305 Ry

     total magnetization       =     4.00 Bohr mag/cell
     absolute magnetization    =     4.09 Bohr mag/cell

     iteration #  5     ecut=   800.00 Ry     beta= 0.20
     Davidson diagonalization with overlap
     ethr =  6.64E-09,  avg # of iterations =  3.5

     total cpu time spent up to now is       39.8 secs

     total energy              =    -381.49955185 Ry
     estimated scf accuracy    <       0.00000134 Ry

     total magnetization       =     4.00 Bohr mag/cell
     absolute magnetization    =     4.09 Bohr mag/cell

     iteration #  6     ecut=   800.00 Ry     beta= 0.20
     Davidson diagonalization with overlap
     ethr =  2.91E-09,  avg # of iterations =  2.0

     total cpu time spent up to now is       40.6 secs

     total energy              =    -381.49955212 Ry
     estimated scf accuracy    <       0.00000048 Ry

     total magnetization       =     4.00 Bohr mag/cell
     absolute magnetization    =     4.09 Bohr mag/cell

     iteration #  7     ecut=   800.00 Ry     beta= 0.20
     Davidson diagonalization with overlap
     ethr =  1.05E-09,  avg # of iterations =  1.5

     total cpu time spent up to now is       41.3 secs

     total energy              =    -381.49955194 Ry
     estimated scf accuracy    <       0.00000034 Ry

     total magnetization       =     4.00 Bohr mag/cell
     absolute magnetization    =     4.09 Bohr mag/cell

     iteration #  8     ecut=   800.00 Ry     beta= 0.20
     Davidson diagonalization with overlap
     ethr =  7.34E-10,  avg # of iterations =  3.5

     total cpu time spent up to now is       42.1 secs

     total energy              =    -381.49955201 Ry
     estimated scf accuracy    <       0.00000034 Ry

     total magnetization       =     4.00 Bohr mag/cell
     absolute magnetization    =     4.09 Bohr mag/cell

     iteration #  9     ecut=   800.00 Ry     beta= 0.20
     Davidson diagonalization with overlap
     ethr =  7.34E-10,  avg # of iterations =  2.0
 
     Magnetic moment per site:
     atom:    1    charge:   13.3130    magn:    3.6806    constr:    0.0000
     atom:    2    charge:    0.2227    magn:   -0.0006    constr:    0.0000
     atom:    3    charge:    0.2227    magn:   -0.0006    constr:    0.0000
     atom:    4    charge:    0.2227    magn:   -0.0006    constr:    0.0000
     atom:    5    charge:    5.9481    magn:    0.0002    constr:    0.0000
     atom:    6    charge:    5.9566    magn:    0.0005    constr:    0.0000
     atom:    7    charge:    5.9566    magn:    0.0005    constr:    0.0000
     atom:    8    charge:    5.9566    magn:    0.0005    constr:    0.0000

     total cpu time spent up to now is       42.9 secs

     End of self-consistent calculation

 ------ SPIN UP ------------


          k = 0.0000 0.0000 0.0000 (192431 PWs)   bands (ev):

   -88.2993 -52.5626 -52.5626 -52.5626 -12.7136 -11.2459 -11.2459 -10.8953
     1.6399   1.6399   1.6399   2.1425   2.1425   2.1425   2.2329   2.2329
     4.7078   4.7078   4.7078   4.7169   4.7169   4.7169   6.2996   6.2996
     6.2996  13.2078  17.7452  18.7065  18.7065  18.7065  19.0066  19.0066

     occupation numbers 
     1.0000   1.0000   1.0000   1.0000   1.0000   1.0000   1.0000   1.0000
     1.0000   1.0000   1.0000   1.0000   1.0000   1.0000   1.0000   1.0000
     1.0000   1.0000   1.0000   1.0000   1.0000   1.0000   1.0000   1.0000
     1.0000   0.0000   0.0000   0.0000   0.0000   0.0000   0.0000   0.0000

 ------ SPIN DOWN ----------


          k = 0.0000 0.0000 0.0000 (192431 PWs)   bands (ev):

   -82.1414 -45.9123 -45.9123 -45.9123 -12.6540 -11.1316 -11.1316 -10.8795
     1.7361   1.7361   1.7361   4.7306   4.7306   4.7306   4.7694   4.7694
     4.7694   6.3060   6.3060   6.3060   9.4933   9.4933   9.4933  13.0212
    13.0212  13.5403  18.8074  19.0236  19.0236  19.2522  19.2522  19.2522

     occupation numbers 
     1.0000   1.0000   1.0000   1.0000   1.0000   1.0000   1.0000   1.0000
     1.0000   1.0000   1.0000   1.0000   1.0000   1.0000   1.0000   1.0000
     1.0000   1.0000   1.0000   1.0000   0.3333   0.3333   0.3333   0.0000
     0.0000   0.0000   0.0000   0.0000   0.0000   0.0000   0.0000   0.0000

     the spin up/dw Fermi energies are    12.5754    9.4754 ev

!    total energy              =    -381.49955208 Ry
     estimated scf accuracy    <          2.7E-09 Ry
     smearing contrib. (-TS)   =      -0.00362813 Ry
     internal energy E=F+TS    =    -381.49592395 Ry

     total magnetization       =     4.00 Bohr mag/cell
     absolute magnetization    =     4.09 Bohr mag/cell

     convergence has been achieved in   9 iterations

     Using ACE for calculation of exact exchange

     total energy              =    -381.50091924 Ry
     Harris-Foulkes estimate   =    -381.50091924 Ry
     est. exchange err (dexx)  =       0.00136715 Ry
     - averaged Fock potential =      27.18162894 Ry
     + Fock energy (ACE)       =     -13.60771684 Ry

     EXX: now go back to refine exchange calculation

     total cpu time spent up to now is       63.8 secs

     Self-consistent Calculation

     iteration #  1     ecut=   800.00 Ry     beta= 0.20
     Davidson diagonalization with overlap
     ethr =  7.34E-10,  avg # of iterations =  6.0

     total cpu time spent up to now is       65.1 secs

     total energy              =    -381.50111316 Ry
     estimated scf accuracy    <       0.00004186 Ry

     total magnetization       =     4.00 Bohr mag/cell
     absolute magnetization    =     4.09 Bohr mag/cell

     iteration #  2     ecut=   800.00 Ry     beta= 0.20
     Davidson diagonalization with overlap
     ethr =  9.10E-08,  avg # of iterations =  1.0

     total cpu time spent up to now is       65.8 secs

     total energy              =    -381.50111407 Ry
     estimated scf accuracy    <       0.00002058 Ry

     total magnetization       =     4.00 Bohr mag/cell
     absolute magnetization    =     4.09 Bohr mag/cell

     iteration #  3     ecut=   800.00 Ry     beta= 0.20
     Davidson diagonalization with overlap
     ethr =  4.47E-08,  avg # of iterations =  2.0

     total cpu time spent up to now is       66.5 secs

     total energy              =    -381.50111688 Ry
     estimated scf accuracy    <       0.00000349 Ry

     total magnetization       =     4.00 Bohr mag/cell
     absolute magnetization    =     4.09 Bohr mag/cell

     iteration #  4     ecut=   800.00 Ry     beta= 0.20
     Davidson diagonalization with overlap
     ethr =  7.58E-09,  avg # of iterations =  2.0

     total cpu time spent up to now is       67.2 secs

     total energy              =    -381.50111723 Ry
     estimated scf accuracy    <       0.00000010 Ry

     total magnetization       =     4.00 Bohr mag/cell
     absolute magnetization    =     4.09 Bohr mag/cell

     iteration #  5     ecut=   800.00 Ry     beta= 0.20
     Davidson diagonalization with overlap
     ethr =  2.28E-10,  avg # of iterations =  3.0

     total cpu time spent up to now is       68.0 secs

     total energy              =    -381.50111726 Ry
     estimated scf accuracy    <       0.00000003 Ry

     total magnetization       =     4.00 Bohr mag/cell
     absolute magnetization    =     4.09 Bohr mag/cell

     iteration #  6     ecut=   800.00 Ry     beta= 0.20
     Davidson diagonalization with overlap
     ethr =  5.73E-11,  avg # of iterations =  2.5
 
     Magnetic moment per site:
     atom:    1    charge:   13.3137    magn:    3.6930    constr:    0.0000
     atom:    2    charge:    0.2223    magn:   -0.0007    constr:    0.0000
     atom:    3    charge:    0.2223    magn:   -0.0007    constr:    0.0000
     atom:    4    charge:    0.2223    magn:   -0.0007    constr:    0.0000
     atom:    5    charge:    5.9504    magn:    0.0003    constr:    0.0000
     atom:    6    charge:    5.9591    magn:    0.0011    constr:    0.0000
     atom:    7    charge:    5.9591    magn:    0.0011    constr:    0.0000
     atom:    8    charge:    5.9591    magn:    0.0011    constr:    0.0000

     total cpu time spent up to now is       68.8 secs

     End of self-consistent calculation

 ------ SPIN UP ------------


          k = 0.0000 0.0000 0.0000 (192431 PWs)   bands (ev):

   -88.3263 -52.5938 -52.5938 -52.5938 -12.7124 -11.2504 -11.2504 -10.8988
     1.6537   1.6537   1.6537   2.1023   2.1023   2.1023   2.2176   2.2176
     4.7104   4.7104   4.7104   4.7194   4.7194   4.7194   6.2987   6.2987
     6.2987  13.2336  17.7656  18.7227  18.7227  18.7227  19.0174  19.0174

     occupation numbers 
     1.0000   1.0000   1.0000   1.0000   1.0000   1.0000   1.0000   1.0000
     1.0000   1.0000   1.0000   1.0000   1.0000   1.0000   1.0000   1.0000
     1.0000   1.0000   1.0000   1.0000   1.0000   1.0000   1.0000   1.0000
     1.0000   0.0000   0.0000   0.0000   0.0000   0.0000   0.0000   0.0000

 ------ SPIN DOWN ----------


          k = 0.0000 0.0000 0.0000 (192431 PWs)   bands (ev):

   -82.0821 -45.8490 -45.8490 -45.8490 -12.6603 -11.1406 -11.1406 -10.8846
     1.7389   1.7389   1.7389   4.7307   4.7307   4.7307   4.7694   4.7694
     4.7694   6.3040   6.3040   6.3040   9.5616   9.5617   9.5617  13.0577
    13.0577  13.5463  18.8115  19.0304  19.0304  19.2734  19.2734  19.2734

     occupation numbers 
     1.0000   1.0000   1.0000   1.0000   1.0000   1.0000   1.0000   1.0000
     1.0000   1.0000   1.0000   1.0000   1.0000   1.0000   1.0000   1.0000
     1.0000   1.0000   1.0000   1.0000   0.3334   0.3333   0.3332   0.0000
     0.0000   0.0000   0.0000   0.0000   0.0000   0.0000   0.0000   0.0000

     the spin up/dw Fermi energies are    12.5937    9.5437 ev

!    total energy              =    -381.50111727 Ry
     estimated scf accuracy    <          8.4E-09 Ry
     smearing contrib. (-TS)   =      -0.00362813 Ry
     internal energy E=F+TS    =    -381.49748914 Ry

     total magnetization       =     4.00 Bohr mag/cell
     absolute magnetization    =     4.09 Bohr mag/cell

     convergence has been achieved in   6 iterations

     Using ACE for calculation of exact exchange

     total energy              =    -381.50115050 Ry
     Harris-Foulkes estimate   =    -381.50115050 Ry
     est. exchange err (dexx)  =       0.00003323 Ry
     - averaged Fock potential =      27.22121883 Ry
     + Fock energy (ACE)       =     -13.61353523 Ry

     EXX: now go back to refine exchange calculation

     total cpu time spent up to now is       89.4 secs

     Self-consistent Calculation

     iteration #  1     ecut=   800.00 Ry     beta= 0.20
     Davidson diagonalization with overlap
     ethr =  5.73E-11,  avg # of iterations =  6.0

     total cpu time spent up to now is       90.6 secs

     total energy              =    -381.50115664 Ry
     estimated scf accuracy    <       0.00000214 Ry

     total magnetization       =     4.00 Bohr mag/cell
     absolute magnetization    =     4.09 Bohr mag/cell

     iteration #  2     ecut=   800.00 Ry     beta= 0.20
     Davidson diagonalization with overlap
     ethr =  4.65E-09,  avg # of iterations =  1.5

     total cpu time spent up to now is       91.3 secs

     total energy              =    -381.50115669 Ry
     estimated scf accuracy    <       0.00000091 Ry

     total magnetization       =     4.00 Bohr mag/cell
     absolute magnetization    =     4.09 Bohr mag/cell

     iteration #  3     ecut=   800.00 Ry     beta= 0.20
     Davidson diagonalization with overlap
     ethr =  1.97E-09,  avg # of iterations =  2.0

     total cpu time spent up to now is       92.0 secs

     total energy              =    -381.50115687 Ry
     estimated scf accuracy    <       0.00000016 Ry

     total magnetization       =     4.00 Bohr mag/cell
     absolute magnetization    =     4.09 Bohr mag/cell

     iteration #  4     ecut=   800.00 Ry     beta= 0.20
     Davidson diagonalization with overlap
     ethr =  3.48E-10,  avg # of iterations =  2.0
 
     Magnetic moment per site:
     atom:    1    charge:   13.3139    magn:    3.6953    constr:    0.0000
     atom:    2    charge:    0.2223    magn:   -0.0007    constr:    0.0000
     atom:    3    charge:    0.2223    magn:   -0.0007    constr:    0.0000
     atom:    4    charge:    0.2223    magn:   -0.0007    constr:    0.0000
     atom:    5    charge:    5.9507    magn:    0.0003    constr:    0.0000
     atom:    6    charge:    5.9595    magn:    0.0015    constr:    0.0000
     atom:    7    charge:    5.9595    magn:    0.0015    constr:    0.0000
     atom:    8    charge:    5.9595    magn:    0.0015    constr:    0.0000

     total cpu time spent up to now is       92.7 secs

     End of self-consistent calculation

 ------ SPIN UP ------------


          k = 0.0000 0.0000 0.0000 (192431 PWs)   bands (ev):

   -88.3291 -52.5976 -52.5976 -52.5976 -12.7119 -11.2509 -11.2509 -10.8988
     1.6559   1.6559   1.6559   2.0947   2.0947   2.0947   2.2169   2.2169
     4.7106   4.7106   4.7106   4.7192   4.7192   4.7192   6.2983   6.2983
     6.2983  13.2382  17.7693  18.7251  18.7251  18.7251  19.0188  19.0188

     occupation numbers 
     1.0000   1.0000   1.0000   1.0000   1.0000   1.0000   1.0000   1.0000
     1.0000   1.0000   1.0000   1.0000   1.0000   1.0000   1.0000   1.0000
     1.0000   1.0000   1.0000   1.0000   1.0000   1.0000   1.0000   1.0000
     1.0000   0.0000   0.0000   0.0000   0.0000   0.0000   0.0000   0.0000

 ------ SPIN DOWN ----------


          k = 0.0000 0.0000 0.0000 (192431 PWs)   bands (ev):

   -82.0688 -45.8357 -45.8357 -45.8356 -12.6600 -11.1400 -11.1400 -10.8843
     1.7395   1.7395   1.7395   4.7317   4.7317   4.7317   4.7700   4.7700
     4.7700   6.3049   6.3049   6.3049   9.5738   9.5742   9.5746  13.0644
    13.0644  13.5469  18.8117  19.0309  19.0309  19.2763  19.2763  19.2764

     occupation numbers 
     1.0000   1.0000   1.0000   1.0000   1.0000   1.0000   1.0000   1.0000
     1.0000   1.0000   1.0000   1.0000   1.0000   1.0000   1.0000   1.0000
     1.0000   1.0000   1.0000   1.0000   0.3368   0.3334   0.3298   0.0000
     0.0000   0.0000   0.0000   0.0000   0.0000   0.0000   0.0000   0.0000

     the spin up/dw Fermi energies are    12.5963    9.5563 ev

!    total energy              =    -381.50115688 Ry
     estimated scf accuracy    <          9.5E-09 Ry
     smearing contrib. (-TS)   =      -0.00362803 Ry
     internal energy E=F+TS    =    -381.49752886 Ry

     total magnetization       =     4.00 Bohr mag/cell
     absolute magnetization    =     4.09 Bohr mag/cell

     convergence has been achieved in   4 iterations

     Using ACE for calculation of exact exchange

     total energy              =    -381.50116209 Ry
     Harris-Foulkes estimate   =    -381.50116209 Ry
     est. exchange err (dexx)  =       0.00000521 Ry
     - averaged Fock potential =      27.22809787 Ry
     + Fock energy (ACE)       =     -13.61456785 Ry

     EXX: now go back to refine exchange calculation

     total cpu time spent up to now is      113.2 secs

     Self-consistent Calculation

     iteration #  1     ecut=   800.00 Ry     beta= 0.20
     Davidson diagonalization with overlap
     ethr =  3.48E-10,  avg # of iterations =  4.0

     total cpu time spent up to now is      114.1 secs

     total energy              =    -381.50131927 Ry
     estimated scf accuracy    <       0.00000010 Ry

     total magnetization       =     4.00 Bohr mag/cell
     absolute magnetization    =     4.09 Bohr mag/cell

     iteration #  2     ecut=   800.00 Ry     beta= 0.20
     Davidson diagonalization with overlap
     ethr =  2.11E-10,  avg # of iterations =  1.5

     total cpu time spent up to now is      114.8 secs

     total energy              =    -381.50131927 Ry
     estimated scf accuracy    <       0.00000004 Ry

     total magnetization       =     4.00 Bohr mag/cell
     absolute magnetization    =     4.09 Bohr mag/cell

     iteration #  3     ecut=   800.00 Ry     beta= 0.20
     Davidson diagonalization with overlap
     ethr =  9.05E-11,  avg # of iterations =  2.0
 
     Magnetic moment per site:
     atom:    1    charge:   13.3140    magn:    3.6956    constr:    0.0000
     atom:    2    charge:    0.2223    magn:   -0.0007    constr:    0.0000
     atom:    3    charge:    0.2223    magn:   -0.0007    constr:    0.0000
     atom:    4    charge:    0.2223    magn:   -0.0007    constr:    0.0000
     atom:    5    charge:    5.9507    magn:    0.0003    constr:    0.0000
     atom:    6    charge:    5.9596    magn:    0.0016    constr:    0.0000
     atom:    7    charge:    5.9596    magn:    0.0016    constr:    0.0000
     atom:    8    charge:    5.9596    magn:    0.0016    constr:    0.0000

     total cpu time spent up to now is      115.5 secs

     End of self-consistent calculation

 ------ SPIN UP ------------


          k = 0.0000 0.0000 0.0000 (192431 PWs)   bands (ev):

   -88.3281 -52.5969 -52.5969 -52.5969 -12.7120 -11.2511 -11.2511 -10.8988
     1.6562   1.6562   1.6562   2.0943   2.0943   2.0943   2.2182   2.2182
     4.7104   4.7104   4.7104   4.7190   4.7190   4.7190   6.2980   6.2980
     6.2980  13.2391  17.7702  18.7256  18.7256  18.7256  19.0190  19.0190

     occupation numbers 
     1.0000   1.0000   1.0000   1.0000   1.0000   1.0000   1.0000   1.0000
     1.0000   1.0000   1.0000   1.0000   1.0000   1.0000   1.0000   1.0000
     1.0000   1.0000   1.0000   1.0000   1.0000   1.0000   1.0000   1.0000
     1.0000   0.0000   0.0000   0.0000   0.0000   0.0000   0.0000   0.0000

 ------ SPIN DOWN ----------


          k = 0.0000 0.0000 0.0000 (192431 PWs)   bands (ev):

   -82.0646 -45.8341 -45.8312 -45.8296 -12.6597 -11.1395 -11.1395 -10.8842
     1.7395   1.7396   1.7397   4.7320   4.7320   4.7320   4.7702   4.7703
     4.7703   6.3052   6.3052   6.3052   9.5612   9.5774   9.5939  13.0666
    13.0668  13.5470  18.8118  19.0309  19.0309  19.2756  19.2768  19.2781

     occupation numbers 
     1.0000   1.0000   1.0000   1.0000   1.0000   1.0000   1.0000   1.0000
     1.0000   1.0000   1.0000   1.0000   1.0000   1.0000   1.0000   1.0000
     1.0000   1.0000   1.0000   1.0000   0.4729   0.3246   0.2025   0.0000
     0.0000   0.0000   0.0000   0.0000   0.0000   0.0000   0.0000   0.0000

     the spin up/dw Fermi energies are    12.5980    9.5584 ev

!    total energy              =    -381.50131928 Ry
     estimated scf accuracy    <          7.0E-09 Ry
     smearing contrib. (-TS)   =      -0.00346905 Ry
     internal energy E=F+TS    =    -381.49785023 Ry

     total magnetization       =     4.00 Bohr mag/cell
     absolute magnetization    =     4.09 Bohr mag/cell

     convergence has been achieved in   3 iterations

     Using ACE for calculation of exact exchange

     total energy              =    -381.50733492 Ry
     Harris-Foulkes estimate   =    -381.50733492 Ry
     est. exchange err (dexx)  =       0.00601564 Ry
     - averaged Fock potential =      27.22962585 Ry
     + Fock energy (ACE)       =     -13.62107364 Ry

     EXX: now go back to refine exchange calculation

     total cpu time spent up to now is      136.7 secs

     Self-consistent Calculation

     iteration #  1     ecut=   800.00 Ry     beta= 0.20
     Davidson diagonalization with overlap
     ethr =  9.05E-11,  avg # of iterations =  5.5

     total cpu time spent up to now is      137.8 secs

     total energy              =    -381.53966066 Ry
     estimated scf accuracy    <       0.00009903 Ry

     total magnetization       =     4.00 Bohr mag/cell
     absolute magnetization    =     4.08 Bohr mag/cell

     iteration #  2     ecut=   800.00 Ry     beta= 0.20
     Davidson diagonalization with overlap
     ethr =  2.15E-07,  avg # of iterations =  2.0

     total cpu time spent up to now is      138.5 secs

     total energy              =    -381.53965663 Ry
     estimated scf accuracy    <       0.00002933 Ry

     total magnetization       =     4.00 Bohr mag/cell
     absolute magnetization    =     4.08 Bohr mag/cell

     iteration #  3     ecut=   800.00 Ry     beta= 0.20
     Davidson diagonalization with overlap
     ethr =  6.38E-08,  avg # of iterations =  2.0

     total cpu time spent up to now is      139.2 secs

     total energy              =    -381.53966339 Ry
     estimated scf accuracy    <       0.00000500 Ry

     total magnetization       =     4.00 Bohr mag/cell
     absolute magnetization    =     4.08 Bohr mag/cell

     iteration #  4     ecut=   800.00 Ry     beta= 0.20
     Davidson diagonalization with overlap
     ethr =  1.09E-08,  avg # of iterations =  2.0

     total cpu time spent up to now is      139.9 secs

     total energy              =    -381.53966378 Ry
     estimated scf accuracy    <       0.00000012 Ry

     total magnetization       =     4.00 Bohr mag/cell
     absolute magnetization    =     4.08 Bohr mag/cell

     iteration #  5     ecut=   800.00 Ry     beta= 0.20
     Davidson diagonalization with overlap
     ethr =  2.65E-10,  avg # of iterations =  4.5

     total cpu time spent up to now is      140.7 secs

     total energy              =    -381.53966380 Ry
     estimated scf accuracy    <       0.00000009 Ry

     total magnetization       =     4.00 Bohr mag/cell
     absolute magnetization    =     4.08 Bohr mag/cell

     iteration #  6     ecut=   800.00 Ry     beta= 0.20
     Davidson diagonalization with overlap
     ethr =  1.93E-10,  avg # of iterations =  2.0

     total cpu time spent up to now is      141.5 secs

     total energy              =    -381.53966381 Ry
     estimated scf accuracy    <       0.00000003 Ry

     total magnetization       =     4.00 Bohr mag/cell
     absolute magnetization    =     4.08 Bohr mag/cell

     iteration #  7     ecut=   800.00 Ry     beta= 0.20
     Davidson diagonalization with overlap
     ethr =  5.88E-11,  avg # of iterations =  3.0
 
     Magnetic moment per site:
     atom:    1    charge:   13.3195    magn:    3.6837    constr:    0.0000
     atom:    2    charge:    0.2222    magn:   -0.0006    constr:    0.0000
     atom:    3    charge:    0.2222    magn:   -0.0006    constr:    0.0000
     atom:    4    charge:    0.2222    magn:   -0.0006    constr:    0.0000
     atom:    5    charge:    5.9508    magn:    0.0003    constr:    0.0000
     atom:    6    charge:    5.9596    magn:    0.0018    constr:    0.0000
     atom:    7    charge:    5.9596    magn:    0.0018    constr:    0.0000
     atom:    8    charge:    5.9596    magn:    0.0018    constr:    0.0000

     total cpu time spent up to now is      142.3 secs

     End of self-consistent calculation

 ------ SPIN UP ------------


          k = 0.0000 0.0000 0.0000 (192431 PWs)   bands (ev):

   -88.2369 -52.5090 -52.5090 -52.5090 -12.7123 -11.2492 -11.2492 -10.9036
     1.6559   1.6559   1.6559   2.1698   2.1698   2.1698   2.2925   2.2925
     4.7098   4.7098   4.7098   4.7185   4.7185   4.7185   6.2965   6.2965
     6.2965  13.2417  17.7818  18.7264  18.7264  18.7264  19.0149  19.0149

     occupation numbers 
     1.0000   1.0000   1.0000   1.0000   1.0000   1.0000   1.0000   1.0000
     1.0000   1.0000   1.0000   1.0000   1.0000   1.0000   1.0000   1.0000
     1.0000   1.0000   1.0000   1.0000   1.0000   1.0000   1.0000   1.0000
     1.0000   0.0000   0.0000   0.0000   0.0000   0.0000   0.0000   0.0000

 ------ SPIN DOWN ----------


          k = 0.0000 0.0000 0.0000 (192431 PWs)   bands (ev):

   -81.9883 -45.8552 -45.7397 -45.6802 -12.6591 -11.1379 -11.1379 -10.8887
     1.7365   1.7419   1.7447   4.7313   4.7320   4.7327   4.7697   4.7708
     4.7714   6.3039   6.3042   6.3044   8.9718   9.6731  10.2417  13.1251
    13.1353  13.5519  18.8286  19.0279  19.0287  19.2340  19.2883  19.3344

     occupation numbers 
     1.0000   1.0000   1.0000   1.0000   1.0000   1.0000   1.0000   1.0000
     1.0000   1.0000   1.0000   1.0000   1.0000   1.0000   1.0000   1.0000
     1.0000   1.0000   1.0000   1.0000   1.0000   0.0000   0.0000   0.0000
     0.0000   0.0000   0.0000   0.0000   0.0000   0.0000   0.0000   0.0000

     the spin up/dw Fermi energies are     9.2916    9.3225 ev

!    total energy              =    -381.53966382 Ry
     estimated scf accuracy    <          5.9E-09 Ry
     smearing contrib. (-TS)   =      -0.00000007 Ry
     internal energy E=F+TS    =    -381.53966375 Ry

     total magnetization       =     4.00 Bohr mag/cell
     absolute magnetization    =     4.08 Bohr mag/cell

     convergence has been achieved in   7 iterations

     Using ACE for calculation of exact exchange

     total energy              =    -381.61543619 Ry
     Harris-Foulkes estimate   =    -381.61543619 Ry
     est. exchange err (dexx)  =       0.07577237 Ry
     - averaged Fock potential =      27.27837515 Ry
     + Fock energy (ACE)       =     -13.73307388 Ry

     EXX: now go back to refine exchange calculation

     total cpu time spent up to now is      163.1 secs

     Self-consistent Calculation

     iteration #  1     ecut=   800.00 Ry     beta= 0.20
     Davidson diagonalization with overlap
     ethr =  5.88E-11,  avg # of iterations =  7.5

     total cpu time spent up to now is      164.3 secs

     total energy              =    -381.61817277 Ry
     estimated scf accuracy    <       0.00102675 Ry

     total magnetization       =     4.00 Bohr mag/cell
     absolute magnetization    =     4.06 Bohr mag/cell

     iteration #  2     ecut=   800.00 Ry     beta= 0.20
     Davidson diagonalization with overlap
     ethr =  2.23E-06,  avg # of iterations =  2.0

     total cpu time spent up to now is      165.1 secs

     total energy              =    -381.61812907 Ry
     estimated scf accuracy    <       0.00032840 Ry

     total magnetization       =     4.00 Bohr mag/cell
     absolute magnetization    =     4.06 Bohr mag/cell

     iteration #  3     ecut=   800.00 Ry     beta= 0.20
     Davidson diagonalization with overlap
     ethr =  7.14E-07,  avg # of iterations =  2.0

     total cpu time spent up to now is      165.8 secs

     total energy              =    -381.61820883 Ry
     estimated scf accuracy    <       0.00006205 Ry

     total magnetization       =     4.00 Bohr mag/cell
     absolute magnetization    =     4.06 Bohr mag/cell

     iteration #  4     ecut=   800.00 Ry     beta= 0.20
     Davidson diagonalization with overlap
     ethr =  1.35E-07,  avg # of iterations =  2.0

     total cpu time spent up to now is      166.5 secs

     total energy              =    -381.61821357 Ry
     estimated scf accuracy    <       0.00000133 Ry

     total magnetization       =     4.00 Bohr mag/cell
     absolute magnetization    =     4.06 Bohr mag/cell

     iteration #  5     ecut=   800.00 Ry     beta= 0.20
     Davidson diagonalization with overlap
     ethr =  2.89E-09,  avg # of iterations =  4.5

     total cpu time spent up to now is      167.3 secs

     total energy              =    -381.61821381 Ry
     estimated scf accuracy    <       0.00000091 Ry

     total magnetization       =     4.00 Bohr mag/cell
     absolute magnetization    =     4.06 Bohr mag/cell

     iteration #  6     ecut=   800.00 Ry     beta= 0.20
     Davidson diagonalization with overlap
     ethr =  1.98E-09,  avg # of iterations =  2.0

     total cpu time spent up to now is      168.1 secs

     total energy              =    -381.61821395 Ry
     estimated scf accuracy    <       0.00000015 Ry

     total magnetization       =     4.00 Bohr mag/cell
     absolute magnetization    =     4.06 Bohr mag/cell

     iteration #  7     ecut=   800.00 Ry     beta= 0.20
     Davidson diagonalization with overlap
     ethr =  3.19E-10,  avg # of iterations =  3.0

     total cpu time spent up to now is      168.9 secs

     total energy              =    -381.61821398 Ry
     estimated scf accuracy    <       0.00000005 Ry

     total magnetization       =     4.00 Bohr mag/cell
     absolute magnetization    =     4.06 Bohr mag/cell

     iteration #  8     ecut=   800.00 Ry     beta= 0.20
     Davidson diagonalization with overlap
     ethr =  1.13E-10,  avg # of iterations =  2.5

     total cpu time spent up to now is      169.7 secs

     total energy              =    -381.61821399 Ry
     estimated scf accuracy    <       0.00000001 Ry

     total magnetization       =     4.00 Bohr mag/cell
     absolute magnetization    =     4.06 Bohr mag/cell

     iteration #  9     ecut=   800.00 Ry     beta= 0.20
     Davidson diagonalization with overlap
     ethr =  2.44E-11,  avg # of iterations =  3.0
 
     Magnetic moment per site:
     atom:    1    charge:   13.3371    magn:    3.6425    constr:    0.0000
     atom:    2    charge:    0.2221    magn:   -0.0002    constr:    0.0000
     atom:    3    charge:    0.2221    magn:   -0.0002    constr:    0.0000
     atom:    4    charge:    0.2221    magn:   -0.0002    constr:    0.0000
     atom:    5    charge:    5.9511    magn:    0.0003    constr:    0.0000
     atom:    6    charge:    5.9600    magn:    0.0019    constr:    0.0000
     atom:    7    charge:    5.9600    magn:    0.0019    constr:    0.0000
     atom:    8    charge:    5.9600    magn:    0.0019    constr:    0.0000

     total cpu time spent up to now is      170.5 secs

     End of self-consistent calculation

 ------ SPIN UP ------------


          k = 0.0000 0.0000 0.0000 (192431 PWs)   bands (ev):

   -87.9348 -52.2180 -52.2180 -52.2180 -12.7129 -11.2425 -11.2425 -10.9174
     1.6542   1.6542   1.6542   2.4207   2.4207   2.4207   2.5355   2.5355
     4.7083   4.7083   4.7083   4.7176   4.7176   4.7176   6.2932   6.2932
     6.2932  13.2477  17.8165  18.7290  18.7290  18.7290  19.0017  19.0017

     occupation numbers 
     1.0000   1.0000   1.0000   1.0000   1.0000   1.0000   1.0000   1.0000
     1.0000   1.0000   1.0000   1.0000   1.0000   1.0000   1.0000   1.0000
     1.0000   1.0000   1.0000   1.0000   1.0000   1.0000   1.0000   1.0000
     1.0000   0.0000   0.0000   0.0000   0.0000   0.0000   0.0000   0.0000

 ------ SPIN DOWN ----------


          k = 0.0000 0.0000 0.0000 (192431 PWs)   bands (ev):

   -81.7537 -45.9758 -45.4515 -45.1772 -12.6572 -11.1335 -11.1333 -10.9019
     1.7269   1.7505   1.7635   4.7301   4.7304   4.7350   4.7687   4.7721
     4.7753   6.3002   6.3009   6.3016   6.5484  11.3127  11.3927  13.3198
    13.3453  13.5699  18.8850  19.0199  19.0219  19.0795  19.4423  19.4610

     occupation numbers 
     1.0000   1.0000   1.0000   1.0000   1.0000   1.0000   1.0000   1.0000
     1.0000   1.0000   1.0000   1.0000   1.0000   1.0000   1.0000   1.0000
     1.0000   1.0000   1.0000   1.0000   1.0000   0.0000   0.0000   0.0000
     0.0000   0.0000   0.0000   0.0000   0.0000   0.0000   0.0000   0.0000

     the spin up/dw Fermi energies are     9.4346    9.4346 ev

!    total energy              =    -381.61821399 Ry
     estimated scf accuracy    <          9.8E-09 Ry
     smearing contrib. (-TS)   =       0.00000000 Ry
     internal energy E=F+TS    =    -381.61821399 Ry

     total magnetization       =     4.00 Bohr mag/cell
     absolute magnetization    =     4.06 Bohr mag/cell

     convergence has been achieved in   9 iterations

     Using ACE for calculation of exact exchange

     total energy              =    -381.61904280 Ry
     Harris-Foulkes estimate   =    -381.61904280 Ry
     est. exchange err (dexx)  =       0.00082881 Ry
     - averaged Fock potential =      27.47245949 Ry
     + Fock energy (ACE)       =     -13.74021442 Ry

     EXX: now go back to refine exchange calculation

     total cpu time spent up to now is      191.5 secs

     Self-consistent Calculation

     iteration #  1     ecut=   800.00 Ry     beta= 0.20
     Davidson diagonalization with overlap
     ethr =  2.44E-11,  avg # of iterations =  8.0

     total cpu time spent up to now is      192.9 secs

     total energy              =    -381.61937356 Ry
     estimated scf accuracy    <       0.00003377 Ry

     total magnetization       =     4.00 Bohr mag/cell
     absolute magnetization    =     4.06 Bohr mag/cell

     iteration #  2     ecut=   800.00 Ry     beta= 0.20
     Davidson diagonalization with overlap
     ethr =  7.34E-08,  avg # of iterations =  1.5

     total cpu time spent up to now is      193.6 secs

     total energy              =    -381.61937583 Ry
     estimated scf accuracy    <       0.00001579 Ry

     total magnetization       =     4.00 Bohr mag/cell
     absolute magnetization    =     4.06 Bohr mag/cell

     iteration #  3     ecut=   800.00 Ry     beta= 0.20
     Davidson diagonalization with overlap
     ethr =  3.43E-08,  avg # of iterations =  2.0

     total cpu time spent up to now is      194.3 secs

     total energy              =    -381.61937964 Ry
     estimated scf accuracy    <       0.00000478 Ry

     total magnetization       =     4.00 Bohr mag/cell
     absolute magnetization    =     4.06 Bohr mag/cell

     iteration #  4     ecut=   800.00 Ry     beta= 0.20
     Davidson diagonalization with overlap
     ethr =  1.04E-08,  avg # of iterations =  1.5

     total cpu time spent up to now is      195.0 secs

     total energy              =    -381.61938000 Ry
     estimated scf accuracy    <       0.00000005 Ry

     total magnetization       =     4.00 Bohr mag/cell
     absolute magnetization    =     4.06 Bohr mag/cell

     iteration #  5     ecut=   800.00 Ry     beta= 0.20
     Davidson diagonalization with overlap
     ethr =  1.10E-10,  avg # of iterations =  4.0
 
     Magnetic moment per site:
     atom:    1    charge:   13.3403    magn:    3.6305    constr:    0.0000
     atom:    2    charge:    0.2221    magn:   -0.0001    constr:    0.0000
     atom:    3    charge:    0.2221    magn:   -0.0001    constr:    0.0000
     atom:    4    charge:    0.2221    magn:   -0.0001    constr:    0.0000
     atom:    5    charge:    5.9512    magn:    0.0002    constr:    0.0000
     atom:    6    charge:    5.9601    magn:    0.0014    constr:    0.0000
     atom:    7    charge:    5.9601    magn:    0.0014    constr:    0.0000
     atom:    8    charge:    5.9601    magn:    0.0014    constr:    0.0000

     total cpu time spent up to now is      195.8 secs

     End of self-consistent calculation

 ------ SPIN UP ------------


          k = 0.0000 0.0000 0.0000 (192431 PWs)   bands (ev):

   -87.8718 -52.1563 -52.1563 -52.1563 -12.7122 -11.2398 -11.2398 -10.9188
     1.6534   1.6534   1.6534   2.4785   2.4785   2.4785   2.5831   2.5831
     4.7097   4.7097   4.7097   4.7180   4.7180   4.7180   6.2943   6.2943
     6.2943  13.2462  17.8199  18.7292  18.7292  18.7292  18.9989  18.9989

     occupation numbers 
     1.0000   1.0000   1.0000   1.0000   1.0000   1.0000   1.0000   1.0000
     1.0000   1.0000   1.0000   1.0000   1.0000   1.0000   1.0000   1.0000
     1.0000   1.0000   1.0000   1.0000   1.0000   1.0000   1.0000   1.0000
     1.0000   0.0000   0.0000   0.0000   0.0000   0.0000   0.0000   0.0000

 ------ SPIN DOWN ----------


          k = 0.0000 0.0000 0.0000 (192431 PWs)   bands (ev):

   -81.7465 -46.0047 -45.4519 -45.1423 -12.6546 -11.1322 -11.1316 -10.9034
     1.7355   1.7558   1.7674   4.7323   4.7324   4.7356   4.7696   4.7734
     4.7766   6.3004   6.3011   6.3017   6.4202  11.3363  11.4151  13.3417
    13.3707  13.5793  18.9004  19.0202  19.0220  19.0717  19.4484  19.4657

     occupation numbers 
     1.0000   1.0000   1.0000   1.0000   1.0000   1.0000   1.0000   1.0000
     1.0000   1.0000   1.0000   1.0000   1.0000   1.0000   1.0000   1.0000
     1.0000   1.0000   1.0000   1.0000   1.0000   0.0000   0.0000   0.0000
     0.0000   0.0000   0.0000   0.0000   0.0000   0.0000   0.0000   0.0000

     the spin up/dw Fermi energies are     9.4448    9.4448 ev

!    total energy              =    -381.61938002 Ry
     estimated scf accuracy    <          9.8E-09 Ry
     smearing contrib. (-TS)   =       0.00000000 Ry
     internal energy E=F+TS    =    -381.61938002 Ry

     total magnetization       =     4.00 Bohr mag/cell
     absolute magnetization    =     4.06 Bohr mag/cell

     convergence has been achieved in   5 iterations

     Using ACE for calculation of exact exchange

     total energy              =    -381.61958315 Ry
     Harris-Foulkes estimate   =    -381.61958315 Ry
     est. exchange err (dexx)  =       0.00020312 Ry
     - averaged Fock potential =      27.48144623 Ry
     + Fock energy (ACE)       =     -13.74143494 Ry

     EXX: now go back to refine exchange calculation

     total cpu time spent up to now is      216.4 secs

     Self-consistent Calculation

     iteration #  1     ecut=   800.00 Ry     beta= 0.20
     Davidson diagonalization with overlap
     ethr =  1.10E-10,  avg # of iterations =  6.5

     total cpu time spent up to now is      217.5 secs

     total energy              =    -381.61974522 Ry
     estimated scf accuracy    <       0.00000229 Ry

     total magnetization       =     4.00 Bohr mag/cell
     absolute magnetization    =     4.06 Bohr mag/cell

     iteration #  2     ecut=   800.00 Ry     beta= 0.20
     Davidson diagonalization with overlap
     ethr =  4.98E-09,  avg # of iterations =  1.5

     total cpu time spent up to now is      218.2 secs

     total energy              =    -381.61974558 Ry
     estimated scf accuracy    <       0.00000126 Ry

     total magnetization       =     4.00 Bohr mag/cell
     absolute magnetization    =     4.06 Bohr mag/cell

     iteration #  3     ecut=   800.00 Ry     beta= 0.20
     Davidson diagonalization with overlap
     ethr =  2.74E-09,  avg # of iterations =  1.5

     total cpu time spent up to now is      218.9 secs

     total energy              =    -381.61974585 Ry
     estimated scf accuracy    <       0.00000037 Ry

     total magnetization       =     4.00 Bohr mag/cell
     absolute magnetization    =     4.06 Bohr mag/cell

     iteration #  4     ecut=   800.00 Ry     beta= 0.20
     Davidson diagonalization with overlap
     ethr =  8.06E-10,  avg # of iterations =  1.5
 
     Magnetic moment per site:
     atom:    1    charge:   13.3411    magn:    3.6269    constr:    0.0000
     atom:    2    charge:    0.2221    magn:   -0.0000    constr:    0.0000
     atom:    3    charge:    0.2221    magn:   -0.0000    constr:    0.0000
     atom:    4    charge:    0.2221    magn:   -0.0000    constr:    0.0000
     atom:    5    charge:    5.9512    magn:    0.0002    constr:    0.0000
     atom:    6    charge:    5.9602    magn:    0.0011    constr:    0.0000
     atom:    7    charge:    5.9602    magn:    0.0011    constr:    0.0000
     atom:    8    charge:    5.9602    magn:    0.0011    constr:    0.0000

     total cpu time spent up to now is      219.6 secs

     End of self-consistent calculation

 ------ SPIN UP ------------


          k = 0.0000 0.0000 0.0000 (192431 PWs)   bands (ev):

   -87.8565 -52.1411 -52.1411 -52.1411 -12.7117 -11.2386 -11.2386 -10.9188
     1.6531   1.6531   1.6531   2.4937   2.4937   2.4937   2.5941   2.5941
     4.7105   4.7105   4.7105   4.7183   4.7183   4.7183   6.2950   6.2950
     6.2950  13.2453  17.8198  18.7290  18.7290  18.7290  18.9981  18.9981

     occupation numbers 
     1.0000   1.0000   1.0000   1.0000   1.0000   1.0000   1.0000   1.0000
     1.0000   1.0000   1.0000   1.0000   1.0000   1.0000   1.0000   1.0000
     1.0000   1.0000   1.0000   1.0000   1.0000   1.0000   1.0000   1.0000
     1.0000   0.0000   0.0000   0.0000   0.0000   0.0000   0.0000   0.0000

 ------ SPIN DOWN ----------


          k = 0.0000 0.0000 0.0000 (192431 PWs)   bands (ev):

   -81.7487 -46.0184 -45.4594 -45.1311 -12.6543 -11.1325 -11.1319 -10.9037
     1.7376   1.7570   1.7685   4.7323   4.7325   4.7355   4.7693   4.7733
     4.7766   6.3000   6.3007   6.3013   6.3805  11.3460  11.4180  13.3445
    13.3757  13.5819  18.9045  19.0205  19.0223  19.0687  19.4509  19.4666

     occupation numbers 
     1.0000   1.0000   1.0000   1.0000   1.0000   1.0000   1.0000   1.0000
     1.0000   1.0000   1.0000   1.0000   1.0000   1.0000   1.0000   1.0000
     1.0000   1.0000   1.0000   1.0000   1.0000   0.0000   0.0000   0.0000
     0.0000   0.0000   0.0000   0.0000   0.0000   0.0000   0.0000   0.0000

     the spin up/dw Fermi energies are     9.4470    9.4470 ev

!    total energy              =    -381.61974589 Ry
     estimated scf accuracy    <          3.4E-09 Ry
     smearing contrib. (-TS)   =       0.00000000 Ry
     internal energy E=F+TS    =    -381.61974589 Ry

     total magnetization       =     4.00 Bohr mag/cell
     absolute magnetization    =     4.06 Bohr mag/cell

     convergence has been achieved in   4 iterations

     Using ACE for calculation of exact exchange

     total energy              =    -381.61989423 Ry
     Harris-Foulkes estimate   =    -381.61989423 Ry
     est. exchange err (dexx)  =       0.00014834 Ry
     - averaged Fock potential =      27.48318909 Ry
     + Fock energy (ACE)       =     -13.74190249 Ry

     EXX: now go back to refine exchange calculation

     total cpu time spent up to now is      240.8 secs

     Self-consistent Calculation

     iteration #  1     ecut=   800.00 Ry     beta= 0.20
     Davidson diagonalization with overlap
     ethr =  8.06E-10,  avg # of iterations =  4.5

     total cpu time spent up to now is      241.6 secs

     total energy              =    -381.62003496 Ry
     estimated scf accuracy    <       0.00000024 Ry

[...]
     4.7112   4.7112   4.7112   4.7185   4.7185   4.7185   6.2955   6.2955
     6.2955  13.2448  17.8205  18.7288  18.7288  18.7288  18.9972  18.9972

     occupation numbers 
     1.0000   1.0000   1.0000   1.0000   1.0000   1.0000   1.0000   1.0000
     1.0000   1.0000   1.0000   1.0000   1.0000   1.0000   1.0000   1.0000
     1.0000   1.0000   1.0000   1.0000   1.0000   1.0000   1.0000   1.0000
     1.0000   0.0000   0.0000   0.0000   0.0000   0.0000   0.0000   0.0000

 ------ SPIN DOWN ----------


          k = 0.0000 0.0000 0.0000 (192431 PWs)   bands (ev):

   -81.7431 -46.0288 -45.5072 -45.0583 -12.6544 -11.1332 -11.1321 -10.9046
     1.7377   1.7567   1.7710   4.7317   4.7323   4.7354   4.7685   4.7728
     4.7769   6.2924   6.2991   6.3000   6.3006  11.4208  11.4255  13.3448
    13.3918  13.5839  18.9081  19.0200  19.0229  19.0589  19.4654  19.4685

     occupation numbers 
     1.0000   1.0000   1.0000   1.0000   1.0000   1.0000   1.0000   1.0000
     1.0000   1.0000   1.0000   1.0000   1.0000   1.0000   1.0000   1.0000
     1.0000   1.0000   1.0000   1.0000   1.0000   0.0000   0.0000   0.0000
     0.0000   0.0000   0.0000   0.0000   0.0000   0.0000   0.0000   0.0000

     the spin up/dw Fermi energies are     9.4505    9.4505 ev

!    total energy              =    -381.62248247 Ry
     estimated scf accuracy    <          3.9E-09 Ry
     smearing contrib. (-TS)   =       0.00000000 Ry
     internal energy E=F+TS    =    -381.62248247 Ry

     total magnetization       =     4.00 Bohr mag/cell
     absolute magnetization    =     4.07 Bohr mag/cell

     convergence has been achieved in   2 iterations

     Using ACE for calculation of exact exchange

     total energy              =    -381.62248248 Ry
     Harris-Foulkes estimate   =    -381.62248248 Ry
     est. exchange err (dexx)  =       0.00000001 Ry
     - averaged Fock potential =      27.48982679 Ry
     + Fock energy (ACE)       =     -13.74492024 Ry

     EXX: now go back to refine exchange calculation

     total cpu time spent up to now is     1684.2 secs

     Self-consistent Calculation

     iteration #  1     ecut=   800.00 Ry     beta= 0.20
     Davidson diagonalization with overlap
     ethr =  3.26E-11,  avg # of iterations =  3.0
 
     Magnetic moment per site:
     atom:    1    charge:   13.3420    magn:    3.6236    constr:    0.0000
     atom:    2    charge:    0.2221    magn:    0.0000    constr:    0.0000
     atom:    3    charge:    0.2221    magn:    0.0000    constr:    0.0000
     atom:    4    charge:    0.2221    magn:    0.0000    constr:    0.0000
     atom:    5    charge:    5.9512    magn:    0.0002    constr:    0.0000
     atom:    6    charge:    5.9603    magn:    0.0007    constr:    0.0000
     atom:    7    charge:    5.9603    magn:    0.0007    constr:    0.0000
     atom:    8    charge:    5.9603    magn:    0.0007    constr:    0.0000

     total cpu time spent up to now is     1685.0 secs

     End of self-consistent calculation

 ------ SPIN UP ------------


          k = 0.0000 0.0000 0.0000 (192431 PWs)   bands (ev):

   -87.8379 -52.1230 -52.1230 -52.1230 -12.7115 -11.2377 -11.2377 -10.9190
     1.6528   1.6528   1.6528   2.5106   2.5106   2.5106   2.6079   2.6079
     4.7109   4.7109   4.7109   4.7186   4.7186   4.7186   6.2955   6.2955
     6.2955  13.2448  17.8206  18.7289  18.7289  18.7289  18.9971  18.9971

     occupation numbers 
     1.0000   1.0000   1.0000   1.0000   1.0000   1.0000   1.0000   1.0000
     1.0000   1.0000   1.0000   1.0000   1.0000   1.0000   1.0000   1.0000
     1.0000   1.0000   1.0000   1.0000   1.0000   1.0000   1.0000   1.0000
     1.0000   0.0000   0.0000   0.0000   0.0000   0.0000   0.0000   0.0000

 ------ SPIN DOWN ----------


          k = 0.0000 0.0000 0.0000 (192431 PWs)   bands (ev):

   -81.7426 -46.0284 -45.5068 -45.0578 -12.6545 -11.1335 -11.1324 -10.9042
     1.7376   1.7566   1.7710   4.7315   4.7320   4.7352   4.7686   4.7729
     4.7770   6.2927   6.2991   6.3000   6.3006  11.4211  11.4258  13.3452
    13.3922  13.5839  18.9082  19.0200  19.0229  19.0590  19.4655  19.4686

     occupation numbers 
     1.0000   1.0000   1.0000   1.0000   1.0000   1.0000   1.0000   1.0000
     1.0000   1.0000   1.0000   1.0000   1.0000   1.0000   1.0000   1.0000
     1.0000   1.0000   1.0000   1.0000   1.0000   0.0000   0.0000   0.0000
     0.0000   0.0000   0.0000   0.0000   0.0000   0.0000   0.0000   0.0000

     the spin up/dw Fermi energies are     9.4506    9.4506 ev

!    total energy              =    -381.62248249 Ry
     estimated scf accuracy    <          7.7E-09 Ry
     smearing contrib. (-TS)   =       0.00000000 Ry
     internal energy E=F+TS    =    -381.62248249 Ry

     total magnetization       =     4.00 Bohr mag/cell
     absolute magnetization    =     4.07 Bohr mag/cell

     convergence has been achieved in   1 iterations

     Using ACE for calculation of exact exchange

     total energy              =    -381.62248250 Ry
     Harris-Foulkes estimate   =    -381.62248251 Ry
     est. exchange err (dexx)  =       0.00000001 Ry
     - averaged Fock potential =      27.48982697 Ry
     + Fock energy (ACE)       =     -13.74490674 Ry

     EXX: now go back to refine exchange calculation

     total cpu time spent up to now is     1707.4 secs

     Self-consistent Calculation

     iteration #  1     ecut=   800.00 Ry     beta= 0.20
     Davidson diagonalization with overlap
     ethr =  3.26E-11,  avg # of iterations =  3.0

     total cpu time spent up to now is     1708.3 secs

     total energy              =    -381.62248251 Ry
     estimated scf accuracy    <       0.00000002 Ry

     total magnetization       =     4.00 Bohr mag/cell
     absolute magnetization    =     4.07 Bohr mag/cell

     iteration #  2     ecut=   800.00 Ry     beta= 0.20
     Davidson diagonalization with overlap
     ethr =  3.28E-11,  avg # of iterations =  1.5
 
     Magnetic moment per site:
     atom:    1    charge:   13.3420    magn:    3.6236    constr:    0.0000
     atom:    2    charge:    0.2221    magn:    0.0000    constr:    0.0000
     atom:    3    charge:    0.2221    magn:    0.0000    constr:    0.0000
     atom:    4    charge:    0.2221    magn:    0.0000    constr:    0.0000
     atom:    5    charge:    5.9513    magn:    0.0002    constr:    0.0000
     atom:    6    charge:    5.9602    magn:    0.0007    constr:    0.0000
     atom:    7    charge:    5.9602    magn:    0.0007    constr:    0.0000
     atom:    8    charge:    5.9602    magn:    0.0007    constr:    0.0000

     total cpu time spent up to now is     1709.0 secs

     End of self-consistent calculation

 ------ SPIN UP ------------


          k = 0.0000 0.0000 0.0000 (192431 PWs)   bands (ev):

   -87.8384 -52.1234 -52.1234 -52.1234 -12.7114 -11.2374 -11.2374 -10.9194
     1.6528   1.6528   1.6528   2.5103   2.5103   2.5103   2.6075   2.6075
     4.7112   4.7112   4.7112   4.7184   4.7184   4.7184   6.2955   6.2955
     6.2955  13.2448  17.8205  18.7288  18.7288  18.7288  18.9972  18.9972

     occupation numbers 
     1.0000   1.0000   1.0000   1.0000   1.0000   1.0000   1.0000   1.0000
     1.0000   1.0000   1.0000   1.0000   1.0000   1.0000   1.0000   1.0000
     1.0000   1.0000   1.0000   1.0000   1.0000   1.0000   1.0000   1.0000
     1.0000   0.0000   0.0000   0.0000   0.0000   0.0000   0.0000   0.0000

 ------ SPIN DOWN ----------


          k = 0.0000 0.0000 0.0000 (192431 PWs)   bands (ev):

   -81.7431 -46.0288 -45.5072 -45.0583 -12.6544 -11.1332 -11.1321 -10.9046
     1.7377   1.7567   1.7710   4.7317   4.7323   4.7354   4.7685   4.7728
     4.7769   6.2924   6.2991   6.3000   6.3006  11.4208  11.4255  13.3448
    13.3918  13.5839  18.9081  19.0200  19.0229  19.0589  19.4654  19.4685

     occupation numbers 
     1.0000   1.0000   1.0000   1.0000   1.0000   1.0000   1.0000   1.0000
     1.0000   1.0000   1.0000   1.0000   1.0000   1.0000   1.0000   1.0000
     1.0000   1.0000   1.0000   1.0000   1.0000   0.0000   0.0000   0.0000
     0.0000   0.0000   0.0000   0.0000   0.0000   0.0000   0.0000   0.0000

     the spin up/dw Fermi energies are     9.4505    9.4505 ev

!    total energy              =    -381.62248251 Ry
     estimated scf accuracy    <          4.5E-09 Ry
     smearing contrib. (-TS)   =       0.00000000 Ry
     internal energy E=F+TS    =    -381.62248251 Ry

     total magnetization       =     4.00 Bohr mag/cell
     absolute magnetization    =     4.07 Bohr mag/cell

     convergence has been achieved in   2 iterations

     Using ACE for calculation of exact exchange

!!   total energy              =    -381.62248252 Ry
     Harris-Foulkes estimate   =    -381.62248252 Ry
     est. exchange err (dexx)  =          1.0E-08 Ry
     - averaged Fock potential =      27.48982720 Ry
     + Fock energy (ACE)       =     -13.74492047 Ry

     EXX self-consistency reached

     Forces acting on atoms (cartesian axes, Ry/au):

     atom    1 type  1   force =     0.00000000    0.00000000    0.00000000
     atom    2 type  2   force =     0.00000000   -0.00000000    0.00000000
     atom    3 type  2   force =     0.00000000    0.00000000    0.00000000
     atom    4 type  2   force =     0.00000000   -0.00000000    0.00000000
     atom    5 type  3   force =     0.00000000   -0.00000000    0.00000000
     atom    6 type  3   force =     0.00000000    0.00000000   -0.00000000
     atom    7 type  3   force =     0.00000000    0.00000000    0.00000000
     atom    8 type  3   force =     0.00000000    0.00000000    0.00000000
     The non-local contrib.  to forces
     atom    1 type  1   force =     0.00000000    0.00000000    0.00000000
     atom    2 type  2   force =     0.00000000    0.00000000    0.00000000
     atom    3 type  2   force =     0.00000000   -0.00000000    0.00000000
     atom    4 type  2   force =     0.00000000   -0.00000000    0.00000000
     atom    5 type  3   force =     0.00000000   -0.00000000    0.00000000
     atom    6 type  3   force =     0.00000000    0.00000000    0.00000000
     atom    7 type  3   force =     0.00000000    0.00000000    0.00000000
     atom    8 type  3   force =     0.00000000    0.00000000    0.00000000
     The ionic contribution  to forces
     atom    1 type  1   force =    -0.00000000   -0.00000000   -0.00000000
     atom    2 type  2   force =    -0.00000000    0.00000000    0.00000000
     atom    3 type  2   force =     0.00000000   -0.00000000    0.00000000
     atom    4 type  2   force =     0.00000000    0.00000000   -0.00000000
     atom    5 type  3   force =     0.00000000    0.00000000    0.00000000
     atom    6 type  3   force =     0.00000000   -0.00000000   -0.00000000
     atom    7 type  3   force =    -0.00000000    0.00000000   -0.00000000
     atom    8 type  3   force =    -0.00000000   -0.00000000    0.00000000
     The local contribution  to forces
     atom    1 type  1   force =     0.00000000    0.00000000    0.00000000
     atom    2 type  2   force =    -0.00000000    0.00000000    0.00000000
     atom    3 type  2   force =     0.00000000   -0.00000000    0.00000000
     atom    4 type  2   force =     0.00000000    0.00000000   -0.00000000
     atom    5 type  3   force =     0.00000000    0.00000000    0.00000000
     atom    6 type  3   force =     0.00000000    0.00000000    0.00000000
     atom    7 type  3   force =     0.00000000    0.00000000    0.00000000
     atom    8 type  3   force =     0.00000000    0.00000000    0.00000000
     The core correction contribution to forces
     atom    1 type  1   force =     0.00000000    0.00000000    0.00000000
     atom    2 type  2   force =     0.00000000    0.00000000    0.00000000
     atom    3 type  2   force =     0.00000000    0.00000000    0.00000000
     atom    4 type  2   force =     0.00000000    0.00000000    0.00000000
     atom    5 type  3   force =     0.00000000    0.00000000    0.00000000
     atom    6 type  3   force =     0.00000000    0.00000000    0.00000000
     atom    7 type  3   force =     0.00000000    0.00000000    0.00000000
     atom    8 type  3   force =     0.00000000    0.00000000    0.00000000
     The Hubbard contrib.    to forces
     atom    1 type  1   force =     0.00000000    0.00000000    0.00000000
     atom    2 type  2   force =     0.00000000    0.00000000    0.00000000
     atom    3 type  2   force =     0.00000000    0.00000000    0.00000000
     atom    4 type  2   force =     0.00000000    0.00000000    0.00000000
     atom    5 type  3   force =     0.00000000    0.00000000    0.00000000
     atom    6 type  3   force =     0.00000000    0.00000000    0.00000000
     atom    7 type  3   force =     0.00000000    0.00000000    0.00000000
     atom    8 type  3   force =     0.00000000    0.00000000    0.00000000
     The SCF correction term to forces
     atom    1 type  1   force =     0.00000000    0.00000000    0.00000000
     atom    2 type  2   force =    -0.00000000    0.00000000   -0.00000000
     atom    3 type  2   force =    -0.00000000   -0.00000000   -0.00000000
     atom    4 type  2   force =     0.00000000    0.00000000   -0.00000000
     atom    5 type  3   force =     0.00000000    0.00000000    0.00000000
     atom    6 type  3   force =    -0.00000000    0.00000000    0.00000000
     atom    7 type  3   force =     0.00000000   -0.00000000    0.00000000
     atom    8 type  3   force =    -0.00000000    0.00000000    0.00000000

     Total force =     0.000000     Total SCF correction =     0.000000


     Computing stress (Cartesian axis) and pressure

          total   stress  (Ry/bohr**3)                   (kbar)     P=       38.62
   0.00026255   0.00000000   0.00000000           38.62        0.00        0.00
   0.00000000   0.00026255   0.00000000            0.00       38.62        0.00
   0.00000000   0.00000000   0.00026255            0.00        0.00       38.62

     kinetic stress (kbar)  48506.96      0.00      0.00
                                0.00  48506.96      0.00
                                0.00      0.00  48506.96

     local   stress (kbar) -16895.38     -0.00     -0.00
                               -0.00 -16895.38     -0.00
                               -0.00     -0.00 -16895.38

     nonloc. stress (kbar) -17819.12      0.00      0.00
                                0.00 -17819.12      0.00
                                0.00      0.00 -17819.12

     hartree stress (kbar)  14285.23      0.00     -0.00
                                0.00  14285.23     -0.00
                               -0.00     -0.00  14285.23

     exc-cor stress (kbar)  -4101.57      0.00      0.00
                                0.00  -4101.57      0.00
                                0.00      0.00  -4101.57

     corecor stress (kbar)      0.00      0.00      0.00
                                0.00      0.00      0.00
                                0.00      0.00      0.00

     ewald   stress (kbar) -22428.97      0.00     -0.00
                                0.00 -22428.97      0.00
                               -0.00      0.00 -22428.97

     hubbard stress (kbar)      0.00      0.00      0.00
                                0.00      0.00      0.00
                                0.00      0.00      0.00

     DFT-D   stress (kbar)      0.00      0.00      0.00
                                0.00      0.00      0.00
                                0.00      0.00      0.00

     XDM     stress (kbar)      0.00      0.00      0.00
                                0.00      0.00      0.00
                                0.00      0.00      0.00

     dft-nl  stress (kbar)      0.00      0.00      0.00
                                0.00      0.00      0.00
                                0.00      0.00      0.00

     TS-vdW  stress (kbar)      0.00      0.00      0.00
                                0.00      0.00      0.00
                                0.00      0.00      0.00


     EXX     stress (kbar)  -1508.53      0.00      0.00
                                0.00  -1508.53      0.00
                                0.00      0.00  -1508.53



     Writing output data file pwscf_output/pwscf.save/
 
     init_run     :      1.08s CPU      2.01s WALL (       1 calls)
     electrons    :    133.07s CPU    252.65s WALL (      74 calls)
     forces       :      0.09s CPU      0.09s WALL (       1 calls)
     stress       :      7.08s CPU      7.63s WALL (       1 calls)

     Called by init_run:
     wfcinit      :      0.34s CPU      0.60s WALL (       1 calls)
     wfcinit:atom :      0.00s CPU      0.00s WALL (       2 calls)
     wfcinit:wfcr :      0.33s CPU      0.55s WALL (       2 calls)
     potinit      :      0.14s CPU      0.43s WALL (       1 calls)
     hinit0       :      0.09s CPU      0.44s WALL (       1 calls)

     Called by electrons:
     c_bands      :     93.98s CPU     95.01s WALL (     158 calls)
     sum_band     :     16.62s CPU     17.00s WALL (     158 calls)
     v_of_rho     :     16.43s CPU     17.59s WALL (     160 calls)
     v_h          :      0.63s CPU      0.70s WALL (     160 calls)
     v_xc         :     15.80s CPU     16.89s WALL (     160 calls)
     mix_rho      :      2.36s CPU      2.56s WALL (     158 calls)

     Called by c_bands:
     init_us_2    :      0.67s CPU      0.70s WALL (     638 calls)
     cegterg      :     92.09s CPU     93.05s WALL (     316 calls)

     Called by sum_band:
     sum_band:wei :      0.00s CPU      0.00s WALL (     158 calls)
     sum_band:loo :     13.56s CPU     13.66s WALL (     158 calls)
     sum_band:buf :      0.45s CPU      0.45s WALL (     316 calls)
     sum_band:ini :      0.34s CPU      0.34s WALL (     316 calls)

     Called by *egterg:
     cdiaghg      :      4.99s CPU      5.21s WALL (    1185 calls)
     cegterg:over :      7.56s CPU      7.60s WALL (    1015 calls)
     cegterg:upda :      5.22s CPU      5.26s WALL (    1015 calls)
     cegterg:last :      5.62s CPU      5.65s WALL (     718 calls)
     cdiaghg:chol :      0.34s CPU      0.41s WALL (    1185 calls)
     cdiaghg:inve :      0.06s CPU      0.07s WALL (    1185 calls)
     cdiaghg:para :      0.33s CPU      0.33s WALL (    2370 calls)
     h_psi        :     66.58s CPU     67.41s WALL (    1333 calls)
     g_psi        :      0.31s CPU      0.32s WALL (    1015 calls)

     Called by h_psi:
     h_psi:calbec :      1.68s CPU      1.74s WALL (    1333 calls)
     vloc_psi     :     57.29s CPU     57.85s WALL (    1333 calls)
     add_vuspsi   :      2.00s CPU      2.06s WALL (    1333 calls)

     General routines
     calbec       :      4.60s CPU      4.72s WALL (    3309 calls)
     fft          :      6.92s CPU      8.23s WALL (    2899 calls)
     ffts         :      0.64s CPU      0.75s WALL (     316 calls)
     fftw         :     58.65s CPU     59.21s WALL (   64738 calls)
     fftc         :    715.91s CPU    814.98s WALL (  304576 calls)
     fftcw        :     29.31s CPU     30.11s WALL (   14272 calls)
 
     Parallel routines
     fft_scatt_xy :     92.44s CPU     94.04s WALL (  386801 calls)
     fft_scatt_yz :    426.51s CPU    520.79s WALL (  386801 calls)

     EXX routines
     exx_grid     :      0.00s CPU      0.01s WALL (       1 calls)
     exxinit      :    290.34s CPU    359.54s WALL (      74 calls)
     vexx         :   1000.40s CPU   1111.23s WALL (     148 calls)
     matcalc      :      2.93s CPU      2.97s WALL (    1966 calls)
     aceupdate    :      0.26s CPU      0.35s WALL (     148 calls)
     vexxace      :      6.50s CPU      6.58s WALL (    1524 calls)
     aceinit      :   1001.17s CPU   1112.12s WALL (     148 calls)
 
     PWSCF        :  23m55.44s CPU  29m23.50s WALL

 
   This run was terminated on:   9:48:36  22Nov2021            

=------------------------------------------------------------------------------=
   JOB DONE.
=------------------------------------------------------------------------------=
