
     Program PWSCF v.6.7MaX starts on 22Nov2021 at 11:25:15 

     This program is part of the open-source Quantum ESPRESSO suite
     for quantum simulation of materials; please cite
         "P. Giannozzi et al., J. Phys.:Condens. Matter 21 395502 (2009);
         "P. Giannozzi et al., J. Phys.:Condens. Matter 29 465901 (2017);
          URL http://www.quantum-espresso.org", 
     in publications or presentations arising from this work. More details at
     http://www.quantum-espresso.org/quote

     Parallel version (MPI), running on    48 processors

     MPI processes distributed on     1 nodes
     R & G space division:  proc/nbgrp/npool/nimage =      48
     Reading input from scf.in

     Current dimensions of program PWSCF are:
     Max number of different atomic species (ntypx) = 10
     Max number of k-points (npk) =  40000
     Max angular momentum in pseudopotentials (lmaxx) =  3
     Message from routine scan_end:
     No INFO block end statement, possibly corrupted file
     Message from routine scan_end:
     No INFO block end statement, possibly corrupted file
     Message from routine scan_end:
     No INFO block end statement, possibly corrupted file

     IMPORTANT: XC functional enforced from input :
     Exchange-correlation= PBE
                           (   1   4   3   4   0   0   0)
     Any further DFT definition will be discarded
     Please, verify this is what you really want


     Subspace diagonalization in iterative solution of the eigenvalue problem:
     one sub-group per band group will be used
     scalapack distributed-memory algorithm (size of sub-group:  6*  6 procs)

 
     Parallelization info
     --------------------
     sticks:   dense  smooth     PW     G-vecs:    dense   smooth      PW
     Min         336     336     87                32092    32092    4297
     Max         337     337     88                32097    32097    4304
     Sum       16141   16141   4221              1540499  1540499  206437
 


     bravais-lattice index     =            1
     lattice parameter (alat)  =       7.9576  a.u.
     unit-cell volume          =     503.9013 (a.u.)^3
     number of atoms/cell      =            8
     number of atomic types    =            3
     number of electrons       =        46.00 (up:  25.00, down:  21.00)
     number of Kohn-Sham states=           32
     kinetic-energy cutoff     =     800.0000  Ry
     charge density cutoff     =    3200.0000  Ry
     scf convergence threshold =      1.0E-10
     mixing beta               =       0.3000
     number of iterations used =            8  plain     mixing
     Exchange-correlation= PBE
                           (   1   4   3   4   0   0   0)

     celldm(1)=   7.957595  celldm(2)=   0.000000  celldm(3)=   0.000000
     celldm(4)=   0.000000  celldm(5)=   0.000000  celldm(6)=   0.000000

     crystal axes: (cart. coord. in units of alat)
               a(1) = (   1.000000   0.000000   0.000000 )  
               a(2) = (   0.000000   1.000000   0.000000 )  
               a(3) = (   0.000000   0.000000   1.000000 )  

     reciprocal axes: (cart. coord. in units 2 pi/alat)
               b(1) = (  1.000000  0.000000  0.000000 )  
               b(2) = (  0.000000  1.000000  0.000000 )  
               b(3) = (  0.000000  0.000000  1.000000 )  


     PseudoPot. # 1 for Fe read from file:
     /ascldap/users/jptowns/ferropericlase_spintransition/pseudos/Fe.ccECP.upf
     MD5 check sum: 375ee7e2ce333dc2f1485c86089d969e
     Pseudo is Norm-conserving, Zval = 16.0
     Generated by new atomic code, or converted to UPF format
     Using radial grid of 1160 points,  2 beta functions with: 
                l(1) =   1
                l(2) =   2

     PseudoPot. # 2 for Mg read from file:
     /ascldap/users/jptowns/ferropericlase_spintransition/pseudos/Mg.ccECP.upf
     MD5 check sum: 94218cb30fa6b3f6810c07405bb1118c
     Pseudo is Norm-conserving, Zval =  2.0
     Generated by new atomic code, or converted to UPF format
     Using radial grid of 1140 points,  2 beta functions with: 
                l(1) =   0
                l(2) =   2

     PseudoPot. # 3 for O  read from file:
     /ascldap/users/jptowns/ferropericlase_spintransition/pseudos/O.ccECP.upf
     MD5 check sum: f8511452b848d8673c004e477b4fc277
     Pseudo is Norm-conserving, Zval =  6.0
     Generated by new atomic code, or converted to UPF format
     Using radial grid of 1130 points,  1 beta functions with: 
                l(1) =   0

     atomic species   valence    mass     pseudopotential
        Fe            16.00    55.84500     Fe( 1.00)
        Mg             2.00    24.30500     Mg( 1.00)
        O              6.00    15.99900     O ( 1.00)

     Starting magnetic structure 
     atomic species   magnetization
        Fe           0.000
        Mg           0.000
        O            0.000


     Simplified LDA+U calculation (l_max = 2) with parameters (eV):
     atomic species    L          U    alpha       J0     beta
        Fe             2     5.0000   0.0000   0.0000   0.0000



     48 Sym. Ops., with inversion, found


                                    s                        frac. trans.

      isym =  1     identity                                     

 cryst.   s( 1) = (     1          0          0      )
                  (     0          1          0      )
                  (     0          0          1      )

 cart.    s( 1) = (  1.0000000  0.0000000  0.0000000 )
                  (  0.0000000  1.0000000  0.0000000 )
                  (  0.0000000  0.0000000  1.0000000 )


      isym =  2     180 deg rotation - cart. axis [0,0,1]        

 cryst.   s( 2) = (    -1          0          0      )
                  (     0         -1          0      )
                  (     0          0          1      )

 cart.    s( 2) = ( -1.0000000  0.0000000  0.0000000 )
                  (  0.0000000 -1.0000000  0.0000000 )
                  (  0.0000000  0.0000000  1.0000000 )


      isym =  3     180 deg rotation - cart. axis [0,1,0]        

 cryst.   s( 3) = (    -1          0          0      )
                  (     0          1          0      )
                  (     0          0         -1      )

 cart.    s( 3) = ( -1.0000000  0.0000000  0.0000000 )
                  (  0.0000000  1.0000000  0.0000000 )
                  (  0.0000000  0.0000000 -1.0000000 )


      isym =  4     180 deg rotation - cart. axis [1,0,0]        

 cryst.   s( 4) = (     1          0          0      )
                  (     0         -1          0      )
                  (     0          0         -1      )

 cart.    s( 4) = (  1.0000000  0.0000000  0.0000000 )
                  (  0.0000000 -1.0000000  0.0000000 )
                  (  0.0000000  0.0000000 -1.0000000 )


      isym =  5     180 deg rotation - cart. axis [1,1,0]        

 cryst.   s( 5) = (     0          1          0      )
                  (     1          0          0      )
                  (     0          0         -1      )

 cart.    s( 5) = (  0.0000000  1.0000000  0.0000000 )
                  (  1.0000000  0.0000000  0.0000000 )
                  (  0.0000000  0.0000000 -1.0000000 )


      isym =  6     180 deg rotation - cart. axis [1,-1,0]       

 cryst.   s( 6) = (     0         -1          0      )
                  (    -1          0          0      )
                  (     0          0         -1      )

 cart.    s( 6) = (  0.0000000 -1.0000000  0.0000000 )
                  ( -1.0000000  0.0000000  0.0000000 )
                  (  0.0000000  0.0000000 -1.0000000 )


      isym =  7      90 deg rotation - cart. axis [0,0,-1]       

 cryst.   s( 7) = (     0         -1          0      )
                  (     1          0          0      )
                  (     0          0          1      )

 cart.    s( 7) = (  0.0000000  1.0000000  0.0000000 )
                  ( -1.0000000  0.0000000  0.0000000 )
                  (  0.0000000  0.0000000  1.0000000 )


      isym =  8      90 deg rotation - cart. axis [0,0,1]        

 cryst.   s( 8) = (     0          1          0      )
                  (    -1          0          0      )
                  (     0          0          1      )

 cart.    s( 8) = (  0.0000000 -1.0000000  0.0000000 )
                  (  1.0000000  0.0000000  0.0000000 )
                  (  0.0000000  0.0000000  1.0000000 )


      isym =  9     180 deg rotation - cart. axis [1,0,1]        

 cryst.   s( 9) = (     0          0          1      )
                  (     0         -1          0      )
                  (     1          0          0      )

 cart.    s( 9) = (  0.0000000  0.0000000  1.0000000 )
                  (  0.0000000 -1.0000000  0.0000000 )
                  (  1.0000000  0.0000000  0.0000000 )


      isym = 10     180 deg rotation - cart. axis [-1,0,1]       

 cryst.   s(10) = (     0          0         -1      )
                  (     0         -1          0      )
                  (    -1          0          0      )

 cart.    s(10) = (  0.0000000  0.0000000 -1.0000000 )
                  (  0.0000000 -1.0000000  0.0000000 )
                  ( -1.0000000  0.0000000  0.0000000 )


      isym = 11      90 deg rotation - cart. axis [0,1,0]        

 cryst.   s(11) = (     0          0         -1      )
                  (     0          1          0      )
                  (     1          0          0      )

 cart.    s(11) = (  0.0000000  0.0000000  1.0000000 )
                  (  0.0000000  1.0000000  0.0000000 )
                  ( -1.0000000  0.0000000  0.0000000 )


      isym = 12      90 deg rotation - cart. axis [0,-1,0]       

 cryst.   s(12) = (     0          0          1      )
                  (     0          1          0      )
                  (    -1          0          0      )

 cart.    s(12) = (  0.0000000  0.0000000 -1.0000000 )
                  (  0.0000000  1.0000000  0.0000000 )
                  (  1.0000000  0.0000000  0.0000000 )


      isym = 13     180 deg rotation - cart. axis [0,1,1]        

 cryst.   s(13) = (    -1          0          0      )
                  (     0          0          1      )
                  (     0          1          0      )

 cart.    s(13) = ( -1.0000000  0.0000000  0.0000000 )
                  (  0.0000000  0.0000000  1.0000000 )
                  (  0.0000000  1.0000000  0.0000000 )


      isym = 14     180 deg rotation - cart. axis [0,1,-1]       

 cryst.   s(14) = (    -1          0          0      )
                  (     0          0         -1      )
                  (     0         -1          0      )

 cart.    s(14) = ( -1.0000000  0.0000000  0.0000000 )
                  (  0.0000000  0.0000000 -1.0000000 )
                  (  0.0000000 -1.0000000  0.0000000 )


      isym = 15      90 deg rotation - cart. axis [-1,0,0]       

 cryst.   s(15) = (     1          0          0      )
                  (     0          0         -1      )
                  (     0          1          0      )

 cart.    s(15) = (  1.0000000  0.0000000  0.0000000 )
                  (  0.0000000  0.0000000  1.0000000 )
                  (  0.0000000 -1.0000000  0.0000000 )


      isym = 16      90 deg rotation - cart. axis [1,0,0]        

 cryst.   s(16) = (     1          0          0      )
                  (     0          0          1      )
                  (     0         -1          0      )

 cart.    s(16) = (  1.0000000  0.0000000  0.0000000 )
                  (  0.0000000  0.0000000 -1.0000000 )
                  (  0.0000000  1.0000000  0.0000000 )


      isym = 17     120 deg rotation - cart. axis [-1,-1,-1]     

 cryst.   s(17) = (     0          0          1      )
                  (     1          0          0      )
                  (     0          1          0      )

 cart.    s(17) = (  0.0000000  1.0000000  0.0000000 )
                  (  0.0000000  0.0000000  1.0000000 )
                  (  1.0000000  0.0000000  0.0000000 )


      isym = 18     120 deg rotation - cart. axis [-1,1,1]       

 cryst.   s(18) = (     0          0         -1      )
                  (    -1          0          0      )
                  (     0          1          0      )

 cart.    s(18) = (  0.0000000 -1.0000000  0.0000000 )
                  (  0.0000000  0.0000000  1.0000000 )
                  ( -1.0000000  0.0000000  0.0000000 )


      isym = 19     120 deg rotation - cart. axis [1,1,-1]       

 cryst.   s(19) = (     0          0         -1      )
                  (     1          0          0      )
                  (     0         -1          0      )

 cart.    s(19) = (  0.0000000  1.0000000  0.0000000 )
                  (  0.0000000  0.0000000 -1.0000000 )
                  ( -1.0000000  0.0000000  0.0000000 )


      isym = 20     120 deg rotation - cart. axis [1,-1,1]       

 cryst.   s(20) = (     0          0          1      )
                  (    -1          0          0      )
                  (     0         -1          0      )

 cart.    s(20) = (  0.0000000 -1.0000000  0.0000000 )
                  (  0.0000000  0.0000000 -1.0000000 )
                  (  1.0000000  0.0000000  0.0000000 )


      isym = 21     120 deg rotation - cart. axis [1,1,1]        

 cryst.   s(21) = (     0          1          0      )
                  (     0          0          1      )
                  (     1          0          0      )

 cart.    s(21) = (  0.0000000  0.0000000  1.0000000 )
                  (  1.0000000  0.0000000  0.0000000 )
                  (  0.0000000  1.0000000  0.0000000 )


      isym = 22     120 deg rotation - cart. axis [-1,1,-1]      

 cryst.   s(22) = (     0         -1          0      )
                  (     0          0         -1      )
                  (     1          0          0      )

 cart.    s(22) = (  0.0000000  0.0000000  1.0000000 )
                  ( -1.0000000  0.0000000  0.0000000 )
                  (  0.0000000 -1.0000000  0.0000000 )


      isym = 23     120 deg rotation - cart. axis [1,-1,-1]      

 cryst.   s(23) = (     0         -1          0      )
                  (     0          0          1      )
                  (    -1          0          0      )

 cart.    s(23) = (  0.0000000  0.0000000 -1.0000000 )
                  ( -1.0000000  0.0000000  0.0000000 )
                  (  0.0000000  1.0000000  0.0000000 )


      isym = 24     120 deg rotation - cart. axis [-1,-1,1]      

 cryst.   s(24) = (     0          1          0      )
                  (     0          0         -1      )
                  (    -1          0          0      )

 cart.    s(24) = (  0.0000000  0.0000000 -1.0000000 )
                  (  1.0000000  0.0000000  0.0000000 )
                  (  0.0000000 -1.0000000  0.0000000 )


      isym = 25     inversion                                    

 cryst.   s(25) = (    -1          0          0      )
                  (     0         -1          0      )
                  (     0          0         -1      )

 cart.    s(25) = ( -1.0000000  0.0000000  0.0000000 )
                  (  0.0000000 -1.0000000  0.0000000 )
                  (  0.0000000  0.0000000 -1.0000000 )


      isym = 26     inv. 180 deg rotation - cart. axis [0,0,1]   

 cryst.   s(26) = (     1          0          0      )
                  (     0          1          0      )
                  (     0          0         -1      )

 cart.    s(26) = (  1.0000000  0.0000000  0.0000000 )
                  (  0.0000000  1.0000000  0.0000000 )
                  (  0.0000000  0.0000000 -1.0000000 )


      isym = 27     inv. 180 deg rotation - cart. axis [0,1,0]   

 cryst.   s(27) = (     1          0          0      )
                  (     0         -1          0      )
                  (     0          0          1      )

 cart.    s(27) = (  1.0000000  0.0000000  0.0000000 )
                  (  0.0000000 -1.0000000  0.0000000 )
                  (  0.0000000  0.0000000  1.0000000 )


      isym = 28     inv. 180 deg rotation - cart. axis [1,0,0]   

 cryst.   s(28) = (    -1          0          0      )
                  (     0          1          0      )
                  (     0          0          1      )

 cart.    s(28) = ( -1.0000000  0.0000000  0.0000000 )
                  (  0.0000000  1.0000000  0.0000000 )
                  (  0.0000000  0.0000000  1.0000000 )


      isym = 29     inv. 180 deg rotation - cart. axis [1,1,0]   

 cryst.   s(29) = (     0         -1          0      )
                  (    -1          0          0      )
                  (     0          0          1      )

 cart.    s(29) = (  0.0000000 -1.0000000  0.0000000 )
                  ( -1.0000000  0.0000000  0.0000000 )
                  (  0.0000000  0.0000000  1.0000000 )


      isym = 30     inv. 180 deg rotation - cart. axis [1,-1,0]  

 cryst.   s(30) = (     0          1          0      )
                  (     1          0          0      )
                  (     0          0          1      )

 cart.    s(30) = (  0.0000000  1.0000000  0.0000000 )
                  (  1.0000000  0.0000000  0.0000000 )
                  (  0.0000000  0.0000000  1.0000000 )


      isym = 31     inv.  90 deg rotation - cart. axis [0,0,-1]  

 cryst.   s(31) = (     0          1          0      )
                  (    -1          0          0      )
                  (     0          0         -1      )

 cart.    s(31) = (  0.0000000 -1.0000000  0.0000000 )
                  (  1.0000000  0.0000000  0.0000000 )
                  (  0.0000000  0.0000000 -1.0000000 )


      isym = 32     inv.  90 deg rotation - cart. axis [0,0,1]   

 cryst.   s(32) = (     0         -1          0      )
                  (     1          0          0      )
                  (     0          0         -1      )

 cart.    s(32) = (  0.0000000  1.0000000  0.0000000 )
                  ( -1.0000000  0.0000000  0.0000000 )
                  (  0.0000000  0.0000000 -1.0000000 )


      isym = 33     inv. 180 deg rotation - cart. axis [1,0,1]   

 cryst.   s(33) = (     0          0         -1      )
                  (     0          1          0      )
                  (    -1          0          0      )

 cart.    s(33) = (  0.0000000  0.0000000 -1.0000000 )
                  (  0.0000000  1.0000000  0.0000000 )
                  ( -1.0000000  0.0000000  0.0000000 )


      isym = 34     inv. 180 deg rotation - cart. axis [-1,0,1]  

 cryst.   s(34) = (     0          0          1      )
                  (     0          1          0      )
                  (     1          0          0      )

 cart.    s(34) = (  0.0000000  0.0000000  1.0000000 )
                  (  0.0000000  1.0000000  0.0000000 )
                  (  1.0000000  0.0000000  0.0000000 )


      isym = 35     inv.  90 deg rotation - cart. axis [0,1,0]   

 cryst.   s(35) = (     0          0          1      )
                  (     0         -1          0      )
                  (    -1          0          0      )

 cart.    s(35) = (  0.0000000  0.0000000 -1.0000000 )
                  (  0.0000000 -1.0000000  0.0000000 )
                  (  1.0000000  0.0000000  0.0000000 )


      isym = 36     inv.  90 deg rotation - cart. axis [0,-1,0]  

 cryst.   s(36) = (     0          0         -1      )
                  (     0         -1          0      )
                  (     1          0          0      )

 cart.    s(36) = (  0.0000000  0.0000000  1.0000000 )
                  (  0.0000000 -1.0000000  0.0000000 )
                  ( -1.0000000  0.0000000  0.0000000 )


      isym = 37     inv. 180 deg rotation - cart. axis [0,1,1]   

 cryst.   s(37) = (     1          0          0      )
                  (     0          0         -1      )
                  (     0         -1          0      )

 cart.    s(37) = (  1.0000000  0.0000000  0.0000000 )
                  (  0.0000000  0.0000000 -1.0000000 )
                  (  0.0000000 -1.0000000  0.0000000 )


      isym = 38     inv. 180 deg rotation - cart. axis [0,1,-1]  

 cryst.   s(38) = (     1          0          0      )
                  (     0          0          1      )
                  (     0          1          0      )

 cart.    s(38) = (  1.0000000  0.0000000  0.0000000 )
                  (  0.0000000  0.0000000  1.0000000 )
                  (  0.0000000  1.0000000  0.0000000 )


      isym = 39     inv.  90 deg rotation - cart. axis [-1,0,0]  

 cryst.   s(39) = (    -1          0          0      )
                  (     0          0          1      )
                  (     0         -1          0      )

 cart.    s(39) = ( -1.0000000  0.0000000  0.0000000 )
                  (  0.0000000  0.0000000 -1.0000000 )
                  (  0.0000000  1.0000000  0.0000000 )


      isym = 40     inv.  90 deg rotation - cart. axis [1,0,0]   

 cryst.   s(40) = (    -1          0          0      )
                  (     0          0         -1      )
                  (     0          1          0      )

 cart.    s(40) = ( -1.0000000  0.0000000  0.0000000 )
                  (  0.0000000  0.0000000  1.0000000 )
                  (  0.0000000 -1.0000000  0.0000000 )


      isym = 41     inv. 120 deg rotation - cart. axis [-1,-1,-1]

 cryst.   s(41) = (     0          0         -1      )
                  (    -1          0          0      )
                  (     0         -1          0      )

 cart.    s(41) = (  0.0000000 -1.0000000  0.0000000 )
                  (  0.0000000  0.0000000 -1.0000000 )
                  ( -1.0000000  0.0000000  0.0000000 )


      isym = 42     inv. 120 deg rotation - cart. axis [-1,1,1]  

 cryst.   s(42) = (     0          0          1      )
                  (     1          0          0      )
                  (     0         -1          0      )

 cart.    s(42) = (  0.0000000  1.0000000  0.0000000 )
                  (  0.0000000  0.0000000 -1.0000000 )
                  (  1.0000000  0.0000000  0.0000000 )


      isym = 43     inv. 120 deg rotation - cart. axis [1,1,-1]  

 cryst.   s(43) = (     0          0          1      )
                  (    -1          0          0      )
                  (     0          1          0      )

 cart.    s(43) = (  0.0000000 -1.0000000  0.0000000 )
                  (  0.0000000  0.0000000  1.0000000 )
                  (  1.0000000  0.0000000  0.0000000 )


      isym = 44     inv. 120 deg rotation - cart. axis [1,-1,1]  

 cryst.   s(44) = (     0          0         -1      )
                  (     1          0          0      )
                  (     0          1          0      )

 cart.    s(44) = (  0.0000000  1.0000000  0.0000000 )
                  (  0.0000000  0.0000000  1.0000000 )
                  ( -1.0000000  0.0000000  0.0000000 )


      isym = 45     inv. 120 deg rotation - cart. axis [1,1,1]   

 cryst.   s(45) = (     0         -1          0      )
                  (     0          0         -1      )
                  (    -1          0          0      )

 cart.    s(45) = (  0.0000000  0.0000000 -1.0000000 )
                  ( -1.0000000  0.0000000  0.0000000 )
                  (  0.0000000 -1.0000000  0.0000000 )


      isym = 46     inv. 120 deg rotation - cart. axis [-1,1,-1] 

 cryst.   s(46) = (     0          1          0      )
                  (     0          0          1      )
                  (    -1          0          0      )

 cart.    s(46) = (  0.0000000  0.0000000 -1.0000000 )
                  (  1.0000000  0.0000000  0.0000000 )
                  (  0.0000000  1.0000000  0.0000000 )


      isym = 47     inv. 120 deg rotation - cart. axis [1,-1,-1] 

 cryst.   s(47) = (     0          1          0      )
                  (     0          0         -1      )
                  (     1          0          0      )

 cart.    s(47) = (  0.0000000  0.0000000  1.0000000 )
                  (  1.0000000  0.0000000  0.0000000 )
                  (  0.0000000 -1.0000000  0.0000000 )


      isym = 48     inv. 120 deg rotation - cart. axis [-1,-1,1] 

 cryst.   s(48) = (     0         -1          0      )
                  (     0          0          1      )
                  (     1          0          0      )

 cart.    s(48) = (  0.0000000  0.0000000  1.0000000 )
                  ( -1.0000000  0.0000000  0.0000000 )
                  (  0.0000000  1.0000000  0.0000000 )


     point group O_h (m-3m) 
     there are 10 classes
     the character table:

       E     8C3   3C2   6C4   6C2'  i     8S6   3s_h  6S4   6s_d 
A_1g   1.00  1.00  1.00  1.00  1.00  1.00  1.00  1.00  1.00  1.00
A_2g   1.00  1.00  1.00 -1.00 -1.00  1.00  1.00  1.00 -1.00 -1.00
E_g    2.00 -1.00  2.00  0.00  0.00  2.00 -1.00  2.00  0.00  0.00
T_1g   3.00  0.00 -1.00  1.00 -1.00  3.00  0.00 -1.00  1.00 -1.00
T_2g   3.00  0.00 -1.00 -1.00  1.00  3.00  0.00 -1.00 -1.00  1.00
A_1u   1.00  1.00  1.00  1.00  1.00 -1.00 -1.00 -1.00 -1.00 -1.00
A_2u   1.00  1.00  1.00 -1.00 -1.00 -1.00 -1.00 -1.00  1.00  1.00
E_u    2.00 -1.00  2.00  0.00  0.00 -2.00  1.00 -2.00  0.00  0.00
T_1u   3.00  0.00 -1.00  1.00 -1.00 -3.00  0.00  1.00 -1.00  1.00
T_2u   3.00  0.00 -1.00 -1.00  1.00 -3.00  0.00  1.00  1.00 -1.00

     the symmetry operations in each class and the name of the first element:

     E        1
          identity                                               
     8C3     17   19   20   18   24   21   22   23
          120 deg rotation - cart. axis [-1,-1,-1]               
     3C2      2    4    3
          180 deg rotation - cart. axis [0,0,1]                  
     6C4      7    8   15   16   12   11
           90 deg rotation - cart. axis [0,0,-1]                 
     6C2'     5    6   14   13   10    9
          180 deg rotation - cart. axis [1,1,0]                  
     i       25
          inversion                                              
     8S6     41   43   44   42   48   45   46   47
          inv. 120 deg rotation - cart. axis [-1,-1,-1]          
     3s_h    26   28   27
          inv. 180 deg rotation - cart. axis [0,0,1]             
     6S4     31   32   39   40   36   35
          inv.  90 deg rotation - cart. axis [0,0,-1]            
     6s_d    29   30   38   37   34   33
          inv. 180 deg rotation - cart. axis [1,1,0]             

   Cartesian axes

     site n.     atom                  positions (alat units)
         1           Fe  tau(   1) = (   0.0000000   0.0000000   0.0000000  )
         2           Mg  tau(   2) = (   0.0000000   0.5000000   0.5000000  )
         3           Mg  tau(   3) = (   0.5000000   0.0000000   0.5000000  )
         4           Mg  tau(   4) = (   0.5000000   0.5000000   0.0000000  )
         5           O   tau(   5) = (   0.5000000   0.5000000   0.5000000  )
         6           O   tau(   6) = (   0.5000000   0.0000000   0.0000000  )
         7           O   tau(   7) = (   0.0000000   0.5000000   0.0000000  )
         8           O   tau(   8) = (   0.0000000   0.0000000   0.5000000  )

   Crystallographic axes

     site n.     atom                  positions (cryst. coord.)
         1           Fe  tau(   1) = (  0.0000000  0.0000000  0.0000000  )
         2           Mg  tau(   2) = (  0.0000000  0.5000000  0.5000000  )
         3           Mg  tau(   3) = (  0.5000000  0.0000000  0.5000000  )
         4           Mg  tau(   4) = (  0.5000000  0.5000000  0.0000000  )
         5           O   tau(   5) = (  0.5000000  0.5000000  0.5000000  )
         6           O   tau(   6) = (  0.5000000  0.0000000  0.0000000  )
         7           O   tau(   7) = (  0.0000000  0.5000000  0.0000000  )
         8           O   tau(   8) = (  0.0000000  0.0000000  0.5000000  )

     number of k points=     4  Fermi-Dirac smearing, width (Ry)=  0.0019
                       cart. coord. in units 2pi/alat
        k(    1) = (   0.0000000   0.0000000   0.0000000), wk =   0.1250000
        k(    2) = (   0.0000000   0.0000000  -0.5000000), wk =   0.3750000
        k(    3) = (   0.0000000  -0.5000000  -0.5000000), wk =   0.3750000
        k(    4) = (  -0.5000000  -0.5000000  -0.5000000), wk =   0.1250000

                       cryst. coord.
        k(    1) = (   0.0000000   0.0000000   0.0000000), wk =   0.1250000
        k(    2) = (   0.0000000   0.0000000  -0.5000000), wk =   0.3750000
        k(    3) = (   0.0000000  -0.5000000  -0.5000000), wk =   0.3750000
        k(    4) = (  -0.5000000  -0.5000000  -0.5000000), wk =   0.1250000

     Dense  grid:  1540499 G-vectors     FFT dimensions: ( 144, 144, 144)

     Dynamical RAM for                 wfc:       1.96 MB

     Dynamical RAM for     wfc (w. buffer):      17.63 MB

     Dynamical RAM for             U proj.:       0.31 MB

     Dynamical RAM for  U proj. (w. buff.):       2.75 MB

     Dynamical RAM for           str. fact:       1.47 MB

     Dynamical RAM for           local pot:       0.00 MB

     Dynamical RAM for          nlocal pot:       1.84 MB

     Dynamical RAM for                qrad:       1.94 MB

     Dynamical RAM for          rho,v,vnew:       5.79 MB

     Dynamical RAM for               rhoin:       1.93 MB

     Dynamical RAM for            rho*nmix:      15.67 MB

     Dynamical RAM for           G-vectors:       2.08 MB

     Dynamical RAM for          h,s,v(r/c):       0.00 MB

     Dynamical RAM for          <psi|beta>:       0.01 MB

     Dynamical RAM for                 psi:       3.92 MB

     Dynamical RAM for                hpsi:       3.92 MB

     Dynamical RAM for      wfcinit/wfcrot:       6.43 MB

     Estimated static dynamical RAM per process >      55.90 MB

     Estimated max dynamical RAM per process >      63.76 MB

     Estimated total dynamical RAM >       2.99 GB
     Generating pointlists ...
     new r_m :   0.2063 (alat units)  1.6413 (a.u.) for type    1
     new r_m :   0.2063 (alat units)  1.6413 (a.u.) for type    2
     new r_m :   0.2063 (alat units)  1.6413 (a.u.) for type    3

     Initial potential from superposition of free atoms

     starting charge   39.00170, renormalised to   46.00000

     negative rho (up, down):  5.519E-07 5.519E-07
 --- in v_hubbard ---
Hubbard energy    0.4410
 -------
     Number of +U iterations with fixed ns =100
     Starting occupations:
 --- enter write_ns ---
 LDA+U parameters:
U( 1)     =  5.00000000
atom    1   Tr[ns(na)] (up, down, total) =   3.00000  3.00000  6.00000
   spin  1
    eigenvalues: 
  0.600  0.600  0.600  0.600  0.600
    eigenvectors:
  1.000  0.000  0.000  0.000  0.000
  0.000  1.000  0.000  0.000  0.000
  0.000  0.000  1.000  0.000  0.000
  0.000  0.000  0.000  1.000  0.000
  0.000  0.000  0.000  0.000  1.000
    occupations:
  0.600  0.000  0.000  0.000  0.000
  0.000  0.600  0.000  0.000  0.000
  0.000  0.000  0.600  0.000  0.000
  0.000  0.000  0.000  0.600  0.000
  0.000  0.000  0.000  0.000  0.600
   spin  2
    eigenvalues: 
  0.600  0.600  0.600  0.600  0.600
    eigenvectors:
  1.000  0.000  0.000  0.000  0.000
  0.000  1.000  0.000  0.000  0.000
  0.000  0.000  1.000  0.000  0.000
  0.000  0.000  0.000  1.000  0.000
  0.000  0.000  0.000  0.000  1.000
    occupations:
  0.600  0.000  0.000  0.000  0.000
  0.000  0.600  0.000  0.000  0.000
  0.000  0.000  0.600  0.000  0.000
  0.000  0.000  0.000  0.600  0.000
  0.000  0.000  0.000  0.000  0.600
atomic mag. moment =   0.00000
N of occupied +U levels =    6.000000
 --- exit write_ns ---
 Atomic wfc used for LDA+U Projector are NOT orthogonalized
     Starting wfcs are   52 randomized atomic wfcs

     total cpu time spent up to now is        4.6 secs

     Self-consistent Calculation

     iteration #  1     ecut=   800.00 Ry     beta= 0.30
     Davidson diagonalization with overlap
     ethr =  1.00E-02,  avg # of iterations = 10.2
 --- enter write_ns ---
 LDA+U parameters:
U( 1)     =  5.00000000
atom    1   Tr[ns(na)] (up, down, total) =   0.19347  0.15393  0.34740
   spin  1
    eigenvalues: 
  0.029  0.029  0.029  0.054  0.054
    eigenvectors:
  0.000  0.000  0.000  0.001  0.999
  0.134  0.022  0.844  0.000  0.000
  0.368  0.506  0.127  0.000  0.000
  0.000  0.000  0.000  0.999  0.001
  0.498  0.473  0.029  0.000  0.000
    occupations:
  0.054 -0.000 -0.000  0.000  0.000
 -0.000  0.029 -0.000  0.000  0.000
 -0.000 -0.000  0.029  0.000  0.000
  0.000  0.000  0.000  0.054 -0.000
  0.000  0.000  0.000 -0.000  0.029
   spin  2
    eigenvalues: 
  0.017  0.017  0.017  0.052  0.052
    eigenvectors:
  0.000  0.000  0.000  0.005  0.995
  0.109  0.006  0.885  0.000  0.000
  0.315  0.616  0.068  0.000  0.000
  0.000  0.000  0.000  0.995  0.005
  0.576  0.378  0.046  0.000  0.000
    occupations:
  0.052 -0.000 -0.000  0.000  0.000
 -0.000  0.017 -0.000  0.000  0.000
 -0.000 -0.000  0.017  0.000  0.000
  0.000  0.000  0.000  0.052 -0.000
  0.000  0.000  0.000 -0.000  0.017
atomic mag. moment =   0.03954
N of occupied +U levels =    0.347398
 --- exit write_ns ---
 Modify starting ns matrices according to input values 
 --- enter write_ns ---
 LDA+U parameters:
U( 1)     =  5.00000000
atom    1   Tr[ns(na)] (up, down, total) =   5.00000  1.00000  6.00000
   spin  1
    eigenvalues: 
  1.000  1.000  1.000  1.000  1.000
    eigenvectors:
  0.009  0.062  0.730  0.172  0.028
  0.110  0.522  0.185  0.173  0.009
  0.188  0.034  0.000  0.251  0.526
  0.044  0.115  0.085  0.361  0.394
  0.649  0.266  0.000  0.043  0.043
    occupations:
  1.000  0.000 -0.000 -0.000  0.000
  0.000  1.000  0.000  0.000 -0.000
 -0.000  0.000  1.000 -0.000  0.000
 -0.000  0.000 -0.000  1.000 -0.000
  0.000 -0.000  0.000 -0.000  1.000
   spin  2
    eigenvalues: 
 -0.000 -0.000  0.000  0.000  1.000
    eigenvectors:
  0.000  1.000  0.000  0.000  0.000
  0.044  0.000  0.056  0.015  0.885
  0.000  0.000  0.886  0.046  0.068
  0.094  0.000  0.046  0.860  0.000
  0.862  0.000  0.012  0.079  0.046
    occupations:
  0.000  0.000 -0.000 -0.000  0.000
  0.000  0.885 -0.246 -0.000  0.203
 -0.000 -0.246  0.068  0.000 -0.056
 -0.000 -0.000  0.000  0.000 -0.000
  0.000  0.203 -0.056 -0.000  0.046
atomic mag. moment =   4.00000
N of occupied +U levels =    6.000000
 --- exit write_ns ---

     RESET ns to initial values (iter <= mixing_fixed_ns)


     negative rho (up, down):  2.701E-07 3.026E-07
 --- in v_hubbard ---
Hubbard energy    0.0000
 -------

     total cpu time spent up to now is        9.4 secs

     total energy              =    -372.65124414 Ry
     estimated scf accuracy    <      54.87494883 Ry

     total magnetization       =     4.00 Bohr mag/cell
     absolute magnetization    =     4.00 Bohr mag/cell

     iteration #  2     ecut=   800.00 Ry     beta= 0.30
     Davidson diagonalization with overlap
     ethr =  1.00E-02,  avg # of iterations =  9.8
 --- enter write_ns ---
 LDA+U parameters:
U( 1)     =  5.00000000
atom    1   Tr[ns(na)] (up, down, total) =   4.76015  3.72347  8.48362
   spin  1
    eigenvalues: 
  0.940  0.940  0.960  0.960  0.960
    eigenvectors:
  0.001  0.999  0.000  0.000  0.000
  0.000  0.000  0.116  0.004  0.880
  0.000  0.000  0.401  0.522  0.077
  0.999  0.001  0.000  0.000  0.000
  0.000  0.000  0.483  0.474  0.043
    occupations:
  0.940 -0.000 -0.000  0.000  0.000
 -0.000  0.960 -0.000  0.000  0.000
 -0.000 -0.000  0.960  0.000  0.000
  0.000  0.000  0.000  0.940 -0.000
  0.000  0.000  0.000 -0.000  0.960
   spin  2
    eigenvalues: 
  0.540  0.540  0.881  0.881  0.881
    eigenvectors:
  0.019  0.981  0.000  0.000  0.000
  0.000  0.000  0.105  0.011  0.884
  0.000  0.000  0.342  0.576  0.082
  0.981  0.019  0.000  0.000  0.000
  0.000  0.000  0.553  0.413  0.034
    occupations:
  0.540 -0.000 -0.000  0.000  0.000
 -0.000  0.881 -0.000  0.000  0.000
 -0.000 -0.000  0.881  0.000  0.000
  0.000  0.000  0.000  0.540 -0.000
  0.000  0.000  0.000 -0.000  0.881
atomic mag. moment =   1.03668
N of occupied +U levels =    8.483624
 --- exit write_ns ---

     RESET ns to initial values (iter <= mixing_fixed_ns)


     negative rho (up, down):  1.633E-07 1.940E-07
 --- in v_hubbard ---
Hubbard energy    0.0000
 -------

     total cpu time spent up to now is       14.3 secs

     total energy              =    -378.90878452 Ry
     estimated scf accuracy    <      11.17120049 Ry

     total magnetization       =     4.00 Bohr mag/cell
     absolute magnetization    =     4.00 Bohr mag/cell

     iteration #  3     ecut=   800.00 Ry     beta= 0.30
     Davidson diagonalization with overlap
     ethr =  1.00E-02,  avg # of iterations =  2.2
 --- enter write_ns ---
 LDA+U parameters:
U( 1)     =  5.00000000
atom    1   Tr[ns(na)] (up, down, total) =   4.61434  1.24703  5.86137
   spin  1
    eigenvalues: 
  0.919  0.919  0.926  0.926  0.926
    eigenvectors:
  0.015  0.985  0.000  0.000  0.000
  0.000  0.000  0.128  0.027  0.845
  0.000  0.000  0.354  0.517  0.130
  0.985  0.015  0.000  0.000  0.000
  0.000  0.000  0.518  0.456  0.025
    occupations:
  0.919 -0.000 -0.000  0.000  0.000
 -0.000  0.926 -0.000  0.000  0.000
 -0.000 -0.000  0.926  0.000  0.000
  0.000  0.000  0.000  0.919 -0.000
  0.000  0.000  0.000 -0.000  0.926
   spin  2
    eigenvalues: 
  0.104  0.104  0.347  0.347  0.347
    eigenvectors:
  0.016  0.984  0.000  0.000  0.000
  0.000  0.000  0.103  0.036  0.862
  0.000  0.000  0.339  0.538  0.123
  0.984  0.016  0.000  0.000  0.000
  0.000  0.000  0.558  0.426  0.016
    occupations:
  0.104 -0.000 -0.000  0.000  0.000
 -0.000  0.347 -0.000  0.000  0.000
 -0.000 -0.000  0.347  0.000  0.000
  0.000  0.000  0.000  0.104 -0.000
  0.000  0.000  0.000 -0.000  0.347
atomic mag. moment =   3.36730
N of occupied +U levels =    5.861370
 --- exit write_ns ---

     RESET ns to initial values (iter <= mixing_fixed_ns)


     negative rho (up, down):  6.676E-08 9.333E-08
 --- in v_hubbard ---
Hubbard energy    0.0000
 -------

     total cpu time spent up to now is       16.8 secs

     total energy              =    -381.69764462 Ry
     estimated scf accuracy    <       1.54275876 Ry

     total magnetization       =     4.00 Bohr mag/cell
     absolute magnetization    =     4.00 Bohr mag/cell

     iteration #  4     ecut=   800.00 Ry     beta= 0.30
     Davidson diagonalization with overlap
     ethr =  3.35E-03,  avg # of iterations =  2.2
 --- enter write_ns ---
 LDA+U parameters:
U( 1)     =  5.00000000
atom    1   Tr[ns(na)] (up, down, total) =   4.81754  1.30009  6.11764
   spin  1
    eigenvalues: 
  0.934  0.934  0.983  0.983  0.983
    eigenvectors:
  0.416  0.584  0.000  0.000  0.000
  0.000  0.000  0.108  0.014  0.879
  0.000  0.000  0.354  0.555  0.091
  0.584  0.416  0.000  0.000  0.000
  0.000  0.000  0.539  0.431  0.030
    occupations:
  0.934 -0.000 -0.000  0.000  0.000
 -0.000  0.983 -0.000  0.000  0.000
 -0.000 -0.000  0.983  0.000  0.000
  0.000  0.000  0.000  0.934 -0.000
  0.000  0.000  0.000 -0.000  0.983
   spin  2
    eigenvalues: 
  0.116  0.116  0.356  0.356  0.356
    eigenvectors:
  0.001  0.999  0.000  0.000  0.000
  0.000  0.000  0.089  0.014  0.897
  0.000  0.000  0.321  0.602  0.076
  0.999  0.001  0.000  0.000  0.000
  0.000  0.000  0.590  0.383  0.027
    occupations:
  0.116 -0.000 -0.000  0.000  0.000
 -0.000  0.356 -0.000  0.000  0.000
 -0.000 -0.000  0.356  0.000  0.000
  0.000  0.000  0.000  0.116 -0.000
  0.000  0.000  0.000 -0.000  0.356
atomic mag. moment =   3.51745
N of occupied +U levels =    6.117636
 --- exit write_ns ---

     RESET ns to initial values (iter <= mixing_fixed_ns)

 --- in v_hubbard ---
Hubbard energy    0.0000
 -------

     total cpu time spent up to now is       19.1 secs

     total energy              =    -381.81997603 Ry
     estimated scf accuracy    <       0.55183950 Ry

     total magnetization       =     4.00 Bohr mag/cell
     absolute magnetization    =     4.01 Bohr mag/cell

     iteration #  5     ecut=   800.00 Ry     beta= 0.30
     Davidson diagonalization with overlap
     ethr =  1.20E-03,  avg # of iterations =  3.9
 --- enter write_ns ---
 LDA+U parameters:
U( 1)     =  5.00000000
atom    1   Tr[ns(na)] (up, down, total) =   4.97773  1.38438  6.36210
   spin  1
    eigenvalues: 
  0.994  0.994  0.994  0.997  0.997
    eigenvectors:
  0.000  0.000  0.000  0.004  0.996
  0.126  0.008  0.866  0.000  0.000
  0.342  0.572  0.086  0.000  0.000
  0.000  0.000  0.000  0.996  0.004
  0.533  0.420  0.047  0.000  0.000
    occupations:
  0.997 -0.000 -0.000  0.000  0.000
 -0.000  0.994 -0.000  0.000  0.000
 -0.000 -0.000  0.994  0.000  0.000
  0.000  0.000  0.000  0.997 -0.000
  0.000  0.000  0.000 -0.000  0.994
   spin  2
    eigenvalues: 
  0.146  0.146  0.364  0.364  0.364
    eigenvectors:
  0.023  0.977  0.000  0.000  0.000
  0.000  0.000  0.113  0.009  0.878
  0.000  0.000  0.331  0.588  0.081
  0.977  0.023  0.000  0.000  0.000
  0.000  0.000  0.556  0.403  0.041
    occupations:
  0.146 -0.000 -0.000  0.000  0.000
 -0.000  0.364 -0.000  0.000  0.000
 -0.000 -0.000  0.364  0.000  0.000
  0.000  0.000  0.000  0.146 -0.000
  0.000  0.000  0.000 -0.000  0.364
atomic mag. moment =   3.59335
N of occupied +U levels =    6.362105
 --- exit write_ns ---

     RESET ns to initial values (iter <= mixing_fixed_ns)

 --- in v_hubbard ---
Hubbard energy    0.0000
 -------

     total cpu time spent up to now is       21.8 secs

     total energy              =    -382.01504091 Ry
     estimated scf accuracy    <       0.10096844 Ry

     total magnetization       =     4.00 Bohr mag/cell
     absolute magnetization    =     4.01 Bohr mag/cell

     iteration #  6     ecut=   800.00 Ry     beta= 0.30
     Davidson diagonalization with overlap
     ethr =  2.19E-04,  avg # of iterations =  1.6
 --- enter write_ns ---
 LDA+U parameters:
U( 1)     =  5.00000000
atom    1   Tr[ns(na)] (up, down, total) =   4.98365  1.34375  6.32739
   spin  1
    eigenvalues: 
  0.996  0.996  0.996  0.998  0.998
    eigenvectors:
  0.000  0.000  0.000  0.003  0.997
  0.124  0.012  0.864  0.000  0.000
  0.355  0.546  0.099  0.000  0.000
  0.000  0.000  0.000  0.997  0.003
  0.521  0.442  0.038  0.000  0.000
    occupations:
  0.998 -0.000 -0.000  0.000  0.000
 -0.000  0.996 -0.000  0.000  0.000
 -0.000 -0.000  0.996  0.000  0.000
  0.000  0.000  0.000  0.998 -0.000
  0.000  0.000  0.000 -0.000  0.996
   spin  2
    eigenvalues: 
  0.132  0.132  0.360  0.360  0.360
    eigenvectors:
  0.001  0.999  0.000  0.000  0.000
  0.000  0.000  0.095  0.005  0.901
  0.000  0.000  0.342  0.598  0.060
  0.999  0.001  0.000  0.000  0.000
  0.000  0.000  0.563  0.398  0.040
    occupations:
  0.132 -0.000 -0.000  0.000  0.000
 -0.000  0.360 -0.000  0.000  0.000
 -0.000 -0.000  0.360  0.000  0.000
  0.000  0.000  0.000  0.132 -0.000
  0.000  0.000  0.000 -0.000  0.360
atomic mag. moment =   3.63990
N of occupied +U levels =    6.327394
 --- exit write_ns ---

     RESET ns to initial values (iter <= mixing_fixed_ns)

 --- in v_hubbard ---
Hubbard energy    0.0000
 -------

     total cpu time spent up to now is       24.0 secs

     total energy              =    -382.01555076 Ry
     estimated scf accuracy    <       0.01416087 Ry

     total magnetization       =     4.00 Bohr mag/cell
     absolute magnetization    =     4.01 Bohr mag/cell

     iteration #  7     ecut=   800.00 Ry     beta= 0.30
     Davidson diagonalization with overlap
     ethr =  3.08E-05,  avg # of iterations =  3.6
 --- enter write_ns ---
 LDA+U parameters:
U( 1)     =  5.00000000
atom    1   Tr[ns(na)] (up, down, total) =   4.98308  1.32861  6.31169
   spin  1
    eigenvalues: 
  0.996  0.996  0.996  0.998  0.998
    eigenvectors:
  0.000  0.000  0.000  0.003  0.997
  0.130  0.016  0.854  0.000  0.000
  0.340  0.552  0.108  0.000  0.000
  0.000  0.000  0.000  0.997  0.003
  0.530  0.432  0.038  0.000  0.000
    occupations:
  0.998 -0.000 -0.000  0.000  0.000
 -0.000  0.996 -0.000  0.000  0.000
 -0.000 -0.000  0.996  0.000  0.000
  0.000  0.000  0.000  0.998 -0.000
  0.000  0.000  0.000 -0.000  0.996
   spin  2
    eigenvalues: 
  0.127  0.127  0.358  0.358  0.358
    eigenvectors:
  0.003  0.997  0.000  0.000  0.000
  0.000  0.000  0.094  0.011  0.895
  0.000  0.000  0.320  0.607  0.073
  0.997  0.003  0.000  0.000  0.000
  0.000  0.000  0.586  0.382  0.032
    occupations:
  0.127 -0.000 -0.000  0.000  0.000
 -0.000  0.358 -0.000  0.000  0.000
 -0.000 -0.000  0.358  0.000  0.000
  0.000  0.000  0.000  0.127 -0.000
  0.000  0.000  0.000 -0.000  0.358
atomic mag. moment =   3.65446
N of occupied +U levels =    6.311691
 --- exit write_ns ---

     RESET ns to initial values (iter <= mixing_fixed_ns)

 --- in v_hubbard ---
Hubbard energy    0.0000
 -------

     total cpu time spent up to now is       26.8 secs

     total energy              =    -382.01822485 Ry
     estimated scf accuracy    <       0.00107630 Ry

     total magnetization       =     4.00 Bohr mag/cell
     absolute magnetization    =     4.00 Bohr mag/cell

     iteration #  8     ecut=   800.00 Ry     beta= 0.30
     Davidson diagonalization with overlap
     ethr =  2.34E-06,  avg # of iterations =  6.8
 --- enter write_ns ---
 LDA+U parameters:
U( 1)     =  5.00000000
atom    1   Tr[ns(na)] (up, down, total) =   4.98194  1.32563  6.30757
   spin  1
    eigenvalues: 
  0.996  0.996  0.996  0.998  0.998
    eigenvectors:
  0.000  0.000  0.000  0.005  0.995
  0.130  0.007  0.863  0.000  0.000
  0.354  0.557  0.089  0.000  0.000
  0.000  0.000  0.000  0.995  0.005
  0.515  0.436  0.048  0.000  0.000
    occupations:
  0.998 -0.000 -0.000  0.000  0.000
 -0.000  0.996 -0.000  0.000  0.000
 -0.000 -0.000  0.996  0.000  0.000
  0.000  0.000  0.000  0.998 -0.000
  0.000  0.000  0.000 -0.000  0.996
   spin  2
    eigenvalues: 
  0.127  0.127  0.357  0.357  0.357
    eigenvectors:
  0.049  0.951  0.000  0.000  0.000
  0.000  0.000  0.108  0.067  0.825
  0.000  0.000  0.303  0.533  0.165
  0.951  0.049  0.000  0.000  0.000
  0.000  0.000  0.590  0.401  0.010
    occupations:
  0.127 -0.000 -0.000  0.000  0.000
 -0.000  0.357 -0.000  0.000  0.000
 -0.000 -0.000  0.357  0.000  0.000
  0.000  0.000  0.000  0.127 -0.000
  0.000  0.000  0.000 -0.000  0.357
atomic mag. moment =   3.65631
N of occupied +U levels =    6.307566
 --- exit write_ns ---

     RESET ns to initial values (iter <= mixing_fixed_ns)

 --- in v_hubbard ---
Hubbard energy    0.0000
 -------

     total cpu time spent up to now is       29.9 secs

     total energy              =    -382.01834493 Ry
     estimated scf accuracy    <       0.00032164 Ry

     total magnetization       =     4.00 Bohr mag/cell
     absolute magnetization    =     4.00 Bohr mag/cell

     iteration #  9     ecut=   800.00 Ry     beta= 0.30
     Davidson diagonalization with overlap
     ethr =  6.99E-07,  avg # of iterations =  2.4
 --- enter write_ns ---
 LDA+U parameters:
U( 1)     =  5.00000000
atom    1   Tr[ns(na)] (up, down, total) =   4.98210  1.32396  6.30606
   spin  1
    eigenvalues: 
  0.996  0.996  0.996  0.998  0.998
    eigenvectors:
  0.000  0.000  0.000  0.000  1.000
  0.105  0.003  0.891  0.000  0.000
  0.354  0.582  0.064  0.000  0.000
  0.000  0.000  0.000  1.000  0.000
  0.541  0.414  0.045  0.000  0.000
    occupations:
  0.998 -0.000 -0.000  0.000  0.000
 -0.000  0.996 -0.000  0.000  0.000
 -0.000 -0.000  0.996  0.000  0.000
  0.000  0.000  0.000  0.998 -0.000
  0.000  0.000  0.000 -0.000  0.996
   spin  2
    eigenvalues: 
  0.126  0.126  0.357  0.357  0.357
    eigenvectors:
  0.020  0.980  0.000  0.000  0.000
  0.000  0.000  0.086  0.024  0.890
  0.000  0.000  0.292  0.620  0.088
  0.980  0.020  0.000  0.000  0.000
  0.000  0.000  0.623  0.356  0.021
    occupations:
  0.126 -0.000 -0.000  0.000  0.000
 -0.000  0.357 -0.000  0.000  0.000
 -0.000 -0.000  0.357  0.000  0.000
  0.000  0.000  0.000  0.126 -0.000
  0.000  0.000  0.000 -0.000  0.357
atomic mag. moment =   3.65814
N of occupied +U levels =    6.306057
 --- exit write_ns ---

     RESET ns to initial values (iter <= mixing_fixed_ns)

 --- in v_hubbard ---
Hubbard energy    0.0000
 -------

     total cpu time spent up to now is       32.4 secs

     total energy              =    -382.01844037 Ry
     estimated scf accuracy    <       0.00013406 Ry

     total magnetization       =     4.00 Bohr mag/cell
     absolute magnetization    =     4.01 Bohr mag/cell

     iteration # 10     ecut=   800.00 Ry     beta= 0.30
     Davidson diagonalization with overlap
     ethr =  2.91E-07,  avg # of iterations =  2.4
 --- enter write_ns ---
 LDA+U parameters:
U( 1)     =  5.00000000
atom    1   Tr[ns(na)] (up, down, total) =   4.98237  1.32629  6.30865
   spin  1
    eigenvalues: 
  0.996  0.996  0.996  0.998  0.998
    eigenvectors:
  0.000  0.000  0.000  0.003  0.997
  0.130  0.019  0.851  0.000  0.000
  0.364  0.518  0.118  0.000  0.000
  0.000  0.000  0.000  0.997  0.003
  0.506  0.463  0.031  0.000  0.000
    occupations:
  0.998 -0.000 -0.000  0.000  0.000
 -0.000  0.996 -0.000  0.000  0.000
 -0.000 -0.000  0.996  0.000  0.000
  0.000  0.000  0.000  0.998 -0.000
  0.000  0.000  0.000 -0.000  0.996
   spin  2
    eigenvalues: 
  0.127  0.127  0.358  0.358  0.358
    eigenvectors:
  0.000  1.000  0.000  0.000  0.000
  0.000  0.000  0.093  0.004  0.903
  0.000  0.000  0.388  0.550  0.062
  1.000  0.000  0.000  0.000  0.000
  0.000  0.000  0.519  0.446  0.035
    occupations:
  0.127 -0.000 -0.000  0.000  0.000
 -0.000  0.358 -0.000  0.000  0.000
 -0.000 -0.000  0.358  0.000  0.000
  0.000  0.000  0.000  0.127 -0.000
  0.000  0.000  0.000 -0.000  0.358
atomic mag. moment =   3.65608
N of occupied +U levels =    6.308654
 --- exit write_ns ---

     RESET ns to initial values (iter <= mixing_fixed_ns)

 --- in v_hubbard ---
Hubbard energy    0.0000
 -------

     total cpu time spent up to now is       35.0 secs

     total energy              =    -382.01847235 Ry
     estimated scf accuracy    <       0.00004772 Ry

     total magnetization       =     4.00 Bohr mag/cell
     absolute magnetization    =     4.00 Bohr mag/cell

     iteration # 11     ecut=   800.00 Ry     beta= 0.30
     Davidson diagonalization with overlap
     ethr =  1.04E-07,  avg # of iterations =  2.1
 --- enter write_ns ---
 LDA+U parameters:
U( 1)     =  5.00000000
atom    1   Tr[ns(na)] (up, down, total) =   4.98228  1.32508  6.30736
   spin  1
    eigenvalues: 
  0.996  0.996  0.996  0.998  0.998
    eigenvectors:
  0.000  0.000  0.000  0.001  0.999
  0.110  0.008  0.882  0.000  0.000
  0.335  0.587  0.078  0.000  0.000
  0.000  0.000  0.000  0.999  0.001
  0.555  0.405  0.040  0.000  0.000
    occupations:
  0.998 -0.000 -0.000  0.000  0.000
 -0.000  0.996 -0.000  0.000  0.000
 -0.000 -0.000  0.996  0.000  0.000
  0.000  0.000  0.000  0.998 -0.000
  0.000  0.000  0.000 -0.000  0.996
   spin  2
    eigenvalues: 
  0.126  0.126  0.357  0.357  0.357
    eigenvectors:
  0.001  0.999  0.000  0.000  0.000
  0.000  0.000  0.092  0.046  0.862
  0.000  0.000  0.281  0.596  0.123
  0.999  0.001  0.000  0.000  0.000
  0.000  0.000  0.627  0.358  0.015
    occupations:
  0.126 -0.000 -0.000  0.000  0.000
 -0.000  0.357 -0.000  0.000  0.000
 -0.000 -0.000  0.357  0.000  0.000
  0.000  0.000  0.000  0.126 -0.000
  0.000  0.000  0.000 -0.000  0.357
atomic mag. moment =   3.65720
N of occupied +U levels =    6.307361
 --- exit write_ns ---

     RESET ns to initial values (iter <= mixing_fixed_ns)

 --- in v_hubbard ---
Hubbard energy    0.0000
 -------

     total cpu time spent up to now is       37.5 secs

     total energy              =    -382.01847714 Ry
     estimated scf accuracy    <       0.00001575 Ry

     total magnetization       =     4.00 Bohr mag/cell
     absolute magnetization    =     4.01 Bohr mag/cell

     iteration # 12     ecut=   800.00 Ry     beta= 0.30
     Davidson diagonalization with overlap
     ethr =  3.42E-08,  avg # of iterations =  2.4
 --- enter write_ns ---
 LDA+U parameters:
U( 1)     =  5.00000000
atom    1   Tr[ns(na)] (up, down, total) =   4.98211  1.32448  6.30659
   spin  1
    eigenvalues: 
  0.996  0.996  0.996  0.998  0.998
    eigenvectors:
  0.000  0.000  0.000  0.013  0.987
  0.135  0.013  0.852  0.000  0.000
  0.402  0.483  0.114  0.000  0.000
  0.000  0.000  0.000  0.987  0.013
  0.462  0.504  0.034  0.000  0.000
    occupations:
  0.998 -0.000 -0.000  0.000  0.000
 -0.000  0.996 -0.000  0.000  0.000
 -0.000 -0.000  0.996  0.000  0.000
  0.000  0.000  0.000  0.998 -0.000
  0.000  0.000  0.000 -0.000  0.996
   spin  2
    eigenvalues: 
  0.126  0.126  0.357  0.357  0.357
    eigenvectors:
  0.007  0.993  0.000  0.000  0.000
  0.000  0.000  0.110  0.053  0.837
  0.000  0.000  0.317  0.533  0.150
  0.993  0.007  0.000  0.000  0.000
  0.000  0.000  0.574  0.414  0.013
    occupations:
  0.126 -0.000 -0.000  0.000  0.000
 -0.000  0.357 -0.000  0.000  0.000
 -0.000 -0.000  0.357  0.000  0.000
  0.000  0.000  0.000  0.126 -0.000
  0.000  0.000  0.000 -0.000  0.357
atomic mag. moment =   3.65764
N of occupied +U levels =    6.306592
 --- exit write_ns ---

     RESET ns to initial values (iter <= mixing_fixed_ns)

 --- in v_hubbard ---
Hubbard energy    0.0000
 -------

     total cpu time spent up to now is       40.1 secs

     total energy              =    -382.01848052 Ry
     estimated scf accuracy    <       0.00000225 Ry

     total magnetization       =     4.00 Bohr mag/cell
     absolute magnetization    =     4.01 Bohr mag/cell

     iteration # 13     ecut=   800.00 Ry     beta= 0.30
     Davidson diagonalization with overlap
     ethr =  4.88E-09,  avg # of iterations =  3.1
 --- enter write_ns ---
 LDA+U parameters:
U( 1)     =  5.00000000
atom    1   Tr[ns(na)] (up, down, total) =   4.98218  1.32494  6.30712
   spin  1
    eigenvalues: 
  0.996  0.996  0.996  0.998  0.998
    eigenvectors:
  0.000  0.000  0.000  0.000  1.000
  0.112  0.002  0.886  0.000  0.000
  0.379  0.557  0.063  0.000  0.000
  0.000  0.000  0.000  1.000  0.000
  0.509  0.441  0.051  0.000  0.000
    occupations:
  0.998 -0.000 -0.000  0.000  0.000
 -0.000  0.996 -0.000  0.000  0.000
 -0.000 -0.000  0.996  0.000  0.000
  0.000  0.000  0.000  0.998 -0.000
  0.000  0.000  0.000 -0.000  0.996
   spin  2
    eigenvalues: 
  0.126  0.126  0.357  0.357  0.357
    eigenvectors:
  0.000  1.000  0.000  0.000  0.000
  0.000  0.000  0.107  0.061  0.832
  0.000  0.000  0.306  0.536  0.158
  1.000  0.000  0.000  0.000  0.000
  0.000  0.000  0.587  0.403  0.011
    occupations:
  0.126 -0.000 -0.000  0.000  0.000
 -0.000  0.357 -0.000  0.000  0.000
 -0.000 -0.000  0.357  0.000  0.000
  0.000  0.000  0.000  0.126 -0.000
  0.000  0.000  0.000 -0.000  0.357
atomic mag. moment =   3.65724
N of occupied +U levels =    6.307118
 --- exit write_ns ---

     RESET ns to initial values (iter <= mixing_fixed_ns)

 --- in v_hubbard ---
Hubbard energy    0.0000
 -------

     total cpu time spent up to now is       42.8 secs

     total energy              =    -382.01848129 Ry
     estimated scf accuracy    <       0.00000042 Ry

     total magnetization       =     4.00 Bohr mag/cell
     absolute magnetization    =     4.01 Bohr mag/cell

     iteration # 14     ecut=   800.00 Ry     beta= 0.30
     Davidson diagonalization with overlap
     ethr =  9.23E-10,  avg # of iterations =  2.0
 --- enter write_ns ---
 LDA+U parameters:
U( 1)     =  5.00000000
atom    1   Tr[ns(na)] (up, down, total) =   4.98218  1.32492  6.30710
   spin  1
    eigenvalues: 
  0.996  0.996  0.996  0.998  0.998
    eigenvectors:
  0.000  0.000  0.000  0.069  0.931
  0.121  0.011  0.869  0.000  0.000
  0.389  0.514  0.097  0.000  0.000
  0.000  0.000  0.000  0.931  0.069
  0.490  0.476  0.034  0.000  0.000
    occupations:
  0.998 -0.000 -0.000  0.000  0.000
 -0.000  0.996 -0.000  0.000  0.000
 -0.000 -0.000  0.996  0.000  0.000
  0.000  0.000  0.000  0.998 -0.000
  0.000  0.000  0.000 -0.000  0.996
   spin  2
    eigenvalues: 
  0.126  0.126  0.357  0.357  0.357
    eigenvectors:
  0.004  0.996  0.000  0.000  0.000
  0.000  0.000  0.097  0.050  0.854
  0.000  0.000  0.275  0.594  0.131
  0.996  0.004  0.000  0.000  0.000
  0.000  0.000  0.628  0.357  0.015
    occupations:
  0.126 -0.000 -0.000  0.000  0.000
 -0.000  0.357 -0.000  0.000  0.000
 -0.000 -0.000  0.357  0.000  0.000
  0.000  0.000  0.000  0.126 -0.000
  0.000  0.000  0.000 -0.000  0.357
atomic mag. moment =   3.65726
N of occupied +U levels =    6.307103
 --- exit write_ns ---

     RESET ns to initial values (iter <= mixing_fixed_ns)

 --- in v_hubbard ---
Hubbard energy    0.0000
 -------

     total cpu time spent up to now is       45.2 secs

     total energy              =    -382.01848130 Ry
     estimated scf accuracy    <       0.00000009 Ry

     total magnetization       =     4.00 Bohr mag/cell
     absolute magnetization    =     4.01 Bohr mag/cell

     iteration # 15     ecut=   800.00 Ry     beta= 0.30
     Davidson diagonalization with overlap
     ethr =  2.01E-10,  avg # of iterations =  2.5
 --- enter write_ns ---
 LDA+U parameters:
U( 1)     =  5.00000000
atom    1   Tr[ns(na)] (up, down, total) =   4.98217  1.32487  6.30704
   spin  1
    eigenvalues: 
  0.996  0.996  0.996  0.998  0.998
    eigenvectors:
  0.000  0.000  0.000  0.024  0.976
  0.126  0.007  0.867  0.000  0.000
  0.365  0.547  0.089  0.000  0.000
  0.000  0.000  0.000  0.976  0.024
  0.509  0.446  0.045  0.000  0.000
    occupations:
  0.998 -0.000 -0.000  0.000  0.000
 -0.000  0.996 -0.000  0.000  0.000
 -0.000 -0.000  0.996  0.000  0.000
  0.000  0.000  0.000  0.998 -0.000
  0.000  0.000  0.000 -0.000  0.996
   spin  2
    eigenvalues: 
  0.126  0.126  0.357  0.357  0.357
    eigenvectors:
  0.001  0.999  0.000  0.000  0.000
  0.000  0.000  0.098  0.046  0.856
  0.000  0.000  0.318  0.550  0.132
  0.999  0.001  0.000  0.000  0.000
  0.000  0.000  0.584  0.404  0.012
    occupations:
  0.126 -0.000 -0.000  0.000  0.000
 -0.000  0.357 -0.000  0.000  0.000
 -0.000 -0.000  0.357  0.000  0.000
  0.000  0.000  0.000  0.126 -0.000
  0.000  0.000  0.000 -0.000  0.357
atomic mag. moment =   3.65730
N of occupied +U levels =    6.307037
 --- exit write_ns ---

     RESET ns to initial values (iter <= mixing_fixed_ns)

 --- in v_hubbard ---
Hubbard energy    0.0000
 -------

     total cpu time spent up to now is       47.9 secs

     total energy              =    -382.01848132 Ry
     estimated scf accuracy    <       0.00000002 Ry

     total magnetization       =     4.00 Bohr mag/cell
     absolute magnetization    =     4.01 Bohr mag/cell

     iteration # 16     ecut=   800.00 Ry     beta= 0.30
     Davidson diagonalization with overlap
     ethr =  4.07E-11,  avg # of iterations =  3.1
 --- enter write_ns ---
 LDA+U parameters:
U( 1)     =  5.00000000
atom    1   Tr[ns(na)] (up, down, total) =   4.98217  1.32485  6.30702
   spin  1
    eigenvalues: 
  0.996  0.996  0.996  0.998  0.998
    eigenvectors:
  0.000  0.000  0.000  0.004  0.996
  0.124  0.014  0.863  0.000  0.000
  0.375  0.521  0.104  0.000  0.000
  0.000  0.000  0.000  0.996  0.004
  0.502  0.465  0.033  0.000  0.000
    occupations:
  0.998 -0.000 -0.000  0.000  0.000
 -0.000  0.996 -0.000  0.000  0.000
 -0.000 -0.000  0.996  0.000  0.000
  0.000  0.000  0.000  0.998 -0.000
  0.000  0.000  0.000 -0.000  0.996
   spin  2
    eigenvalues: 
  0.126  0.126  0.357  0.357  0.357
    eigenvectors:
  0.022  0.978  0.000  0.000  0.000
  0.000  0.000  0.114  0.040  0.846
  0.000  0.000  0.315  0.551  0.135
  0.978  0.022  0.000  0.000  0.000
  0.000  0.000  0.572  0.409  0.019
    occupations:
  0.126 -0.000 -0.000  0.000  0.000
 -0.000  0.357 -0.000  0.000  0.000
 -0.000 -0.000  0.357  0.000  0.000
  0.000  0.000  0.000  0.126 -0.000
  0.000  0.000  0.000 -0.000  0.357
atomic mag. moment =   3.65732
N of occupied +U levels =    6.307024
 --- exit write_ns ---

     RESET ns to initial values (iter <= mixing_fixed_ns)

 --- in v_hubbard ---
Hubbard energy    0.0000
 -------

     total cpu time spent up to now is       50.6 secs

     total energy              =    -382.01848133 Ry
     estimated scf accuracy    <          8.3E-09 Ry

     total magnetization       =     4.00 Bohr mag/cell
     absolute magnetization    =     4.01 Bohr mag/cell

     iteration # 17     ecut=   800.00 Ry     beta= 0.30
     Davidson diagonalization with overlap
     ethr =  1.81E-11,  avg # of iterations =  2.0
 --- enter write_ns ---
 LDA+U parameters:
U( 1)     =  5.00000000
atom    1   Tr[ns(na)] (up, down, total) =   4.98217  1.32487  6.30704
   spin  1
    eigenvalues: 
  0.996  0.996  0.996  0.998  0.998
    eigenvectors:
  0.000  0.000  0.000  0.001  0.999
  0.112  0.021  0.866  0.000  0.000
  0.331  0.564  0.106  0.000  0.000
  0.000  0.000  0.000  0.999  0.001
  0.557  0.415  0.028  0.000  0.000
    occupations:
  0.998 -0.000 -0.000  0.000  0.000
 -0.000  0.996 -0.000  0.000  0.000
 -0.000 -0.000  0.996  0.000  0.000
  0.000  0.000  0.000  0.998 -0.000
  0.000  0.000  0.000 -0.000  0.996
   spin  2
    eigenvalues: 
  0.126  0.126  0.357  0.357  0.357
    eigenvectors:
  0.017  0.983  0.000  0.000  0.000
  0.000  0.000  0.089  0.074  0.837
  0.000  0.000  0.269  0.576  0.156
  0.983  0.017  0.000  0.000  0.000
  0.000  0.000  0.642  0.350  0.007
    occupations:
  0.126 -0.000 -0.000  0.000  0.000
 -0.000  0.357 -0.000  0.000  0.000
 -0.000 -0.000  0.357  0.000  0.000
  0.000  0.000  0.000  0.126 -0.000
  0.000  0.000  0.000 -0.000  0.357
atomic mag. moment =   3.65730
N of occupied +U levels =    6.307040
 --- exit write_ns ---

     RESET ns to initial values (iter <= mixing_fixed_ns)

 --- in v_hubbard ---
Hubbard energy    0.0000
 -------

     total cpu time spent up to now is       53.0 secs

     total energy              =    -382.01848133 Ry
     estimated scf accuracy    <          8.1E-10 Ry

     total magnetization       =     4.00 Bohr mag/cell
     absolute magnetization    =     4.01 Bohr mag/cell

     iteration # 18     ecut=   800.00 Ry     beta= 0.30
     Davidson diagonalization with overlap
     ethr =  1.77E-12,  avg # of iterations =  3.1
 --- enter write_ns ---
 LDA+U parameters:
U( 1)     =  5.00000000
atom    1   Tr[ns(na)] (up, down, total) =   4.98217  1.32487  6.30704
   spin  1
    eigenvalues: 
  0.996  0.996  0.996  0.998  0.998
    eigenvectors:
  0.000  0.000  0.000  0.004  0.996
  0.104  0.001  0.896  0.000  0.000
  0.370  0.594  0.036  0.000  0.000
  0.000  0.000  0.000  0.996  0.004
  0.526  0.405  0.069  0.000  0.000
    occupations:
  0.998 -0.000 -0.000  0.000  0.000
 -0.000  0.996 -0.000  0.000  0.000
 -0.000 -0.000  0.996  0.000  0.000
  0.000  0.000  0.000  0.998 -0.000
  0.000  0.000  0.000 -0.000  0.996
   spin  2
    eigenvalues: 
  0.126  0.126  0.357  0.357  0.357
    eigenvectors:
  0.248  0.752  0.000  0.000  0.000
  0.000  0.000  0.102  0.047  0.851
  0.000  0.000  0.289  0.578  0.133
  0.752  0.248  0.000  0.000  0.000
  0.000  0.000  0.609  0.375  0.016
    occupations:
  0.126 -0.000 -0.000  0.000  0.000
 -0.000  0.357 -0.000  0.000  0.000
 -0.000 -0.000  0.357  0.000  0.000
  0.000  0.000  0.000  0.126 -0.000
  0.000  0.000  0.000 -0.000  0.357
atomic mag. moment =   3.65730
N of occupied +U levels =    6.307042
 --- exit write_ns ---

     RESET ns to initial values (iter <= mixing_fixed_ns)

 --- in v_hubbard ---
Hubbard energy    0.0000
 -------

     total cpu time spent up to now is       55.6 secs

     total energy              =    -382.01848133 Ry
     estimated scf accuracy    <          5.0E-10 Ry

     total magnetization       =     4.00 Bohr mag/cell
     absolute magnetization    =     4.01 Bohr mag/cell

     iteration # 19     ecut=   800.00 Ry     beta= 0.30
     Davidson diagonalization with overlap
     ethr =  1.09E-12,  avg # of iterations =  3.5
 --- enter write_ns ---
 LDA+U parameters:
U( 1)     =  5.00000000
atom    1   Tr[ns(na)] (up, down, total) =   4.98217  1.32488  6.30705
   spin  1
    eigenvalues: 
  0.996  0.996  0.996  0.998  0.998
    eigenvectors:
  0.000  0.000  0.000  0.000  1.000
  0.115  0.003  0.882  0.000  0.000
  0.356  0.577  0.067  0.000  0.000
  0.000  0.000  0.000  1.000  0.000
  0.529  0.420  0.051  0.000  0.000
    occupations:
  0.998 -0.000 -0.000  0.000  0.000
 -0.000  0.996 -0.000  0.000  0.000
 -0.000 -0.000  0.996  0.000  0.000
  0.000  0.000  0.000  0.998 -0.000
  0.000  0.000  0.000 -0.000  0.996
   spin  2
    eigenvalues: 
  0.126  0.126  0.357  0.357  0.357
    eigenvectors:
  0.001  0.999  0.000  0.000  0.000
  0.000  0.000  0.088  0.026  0.886
  0.000  0.000  0.295  0.613  0.093
  0.999  0.001  0.000  0.000  0.000
  0.000  0.000  0.617  0.362  0.021
    occupations:
  0.126 -0.000 -0.000  0.000  0.000
 -0.000  0.357 -0.000  0.000  0.000
 -0.000 -0.000  0.357  0.000  0.000
  0.000  0.000  0.000  0.126 -0.000
  0.000  0.000  0.000 -0.000  0.357
atomic mag. moment =   3.65729
N of occupied +U levels =    6.307052
 --- exit write_ns ---

     RESET ns to initial values (iter <= mixing_fixed_ns)

 --- in v_hubbard ---
Hubbard energy    0.0000
 -------

     total cpu time spent up to now is       58.5 secs

     total energy              =    -382.01848133 Ry
     estimated scf accuracy    <          1.0E-09 Ry

     total magnetization       =     4.00 Bohr mag/cell
     absolute magnetization    =     4.01 Bohr mag/cell

     iteration # 20     ecut=   800.00 Ry     beta= 0.30
     Davidson diagonalization with overlap
     ethr =  1.09E-12,  avg # of iterations =  2.0
 --- enter write_ns ---
 LDA+U parameters:
U( 1)     =  5.00000000
atom    1   Tr[ns(na)] (up, down, total) =   4.98217  1.32487  6.30705
   spin  1
    eigenvalues: 
  0.996  0.996  0.996  0.998  0.998
    eigenvectors:
  0.000  0.000  0.000  0.039  0.961
  0.113  0.002  0.885  0.000  0.000
  0.394  0.571  0.034  0.000  0.000
  0.000  0.000  0.000  0.961  0.039
  0.493  0.426  0.081  0.000  0.000
    occupations:
  0.998 -0.000 -0.000  0.000  0.000
 -0.000  0.996 -0.000  0.000  0.000
 -0.000 -0.000  0.996  0.000  0.000
  0.000  0.000  0.000  0.998 -0.000
  0.000  0.000  0.000 -0.000  0.996
   spin  2
    eigenvalues: 
  0.126  0.126  0.357  0.357  0.357
    eigenvectors:
  0.000  1.000  0.000  0.000  0.000
  0.000  0.000  0.095  0.022  0.884
  0.000  0.000  0.307  0.602  0.092
  1.000  0.000  0.000  0.000  0.000
  0.000  0.000  0.598  0.377  0.025
    occupations:
  0.126 -0.000 -0.000  0.000  0.000
 -0.000  0.357 -0.000  0.000  0.000
 -0.000 -0.000  0.357  0.000  0.000
  0.000  0.000  0.000  0.126 -0.000
  0.000  0.000  0.000 -0.000  0.357
atomic mag. moment =   3.65730
N of occupied +U levels =    6.307047
 --- exit write_ns ---

     RESET ns to initial values (iter <= mixing_fixed_ns)

 --- in v_hubbard ---
Hubbard energy    0.0000
 -------
 
     Magnetic moment per site:
     atom:    1    charge:   13.4791    magn:    3.5176    constr:    0.0000
     atom:    2    charge:    0.2553    magn:   -0.0002    constr:    0.0000
     atom:    3    charge:    0.2553    magn:   -0.0002    constr:    0.0000
     atom:    4    charge:    0.2553    magn:   -0.0002    constr:    0.0000
     atom:    5    charge:    5.8466    magn:   -0.0000    constr:    0.0000
     atom:    6    charge:    5.8521    magn:    0.0538    constr:    0.0000
     atom:    7    charge:    5.8521    magn:    0.0538    constr:    0.0000
     atom:    8    charge:    5.8521    magn:    0.0538    constr:    0.0000

     total cpu time spent up to now is       60.9 secs

     End of self-consistent calculation

 ------ SPIN UP ------------


          k = 0.0000 0.0000 0.0000 (192431 PWs)   bands (ev):

   -79.2418 -44.8492 -44.8492 -44.8492 -10.0095  -8.7942  -8.7942  -8.3892
     3.2661   3.2661   3.2661   4.0431   4.0431   4.0431   4.6208   4.6208
     6.0392   6.0392   6.0392   6.0593   6.0593   6.0593   7.4253   7.4253
     7.4253  12.0000  16.7669  17.7663  17.7663  17.7868  17.7868  17.7868

     occupation numbers 
     1.0000   1.0000   1.0000   1.0000   1.0000   1.0000   1.0000   1.0000
     1.0000   1.0000   1.0000   1.0000   1.0000   1.0000   1.0000   1.0000
     1.0000   1.0000   1.0000   1.0000   1.0000   1.0000   1.0000   1.0000
     1.0000   0.0000   0.0000   0.0000   0.0000   0.0000   0.0000   0.0000

          k = 0.0000 0.0000-0.5000 (192616 PWs)   bands (ev):

   -79.2418 -44.8499 -44.8491 -44.8491  -9.3908  -9.1930  -8.7476  -8.3512
     2.0643   3.0474   3.0474   4.0593   4.3633   4.3633   4.6241   4.7768
     5.2891   5.4451   5.4451   5.6556   6.6092   6.6092   7.1409   7.1409
     7.5230  15.5081  15.6421  18.8011  19.0850  19.0850  19.4450  19.9032

     occupation numbers 
     1.0000   1.0000   1.0000   1.0000   1.0000   1.0000   1.0000   1.0000
     1.0000   1.0000   1.0000   1.0000   1.0000   1.0000   1.0000   1.0000
     1.0000   1.0000   1.0000   1.0000   1.0000   1.0000   1.0000   1.0000
     1.0000   0.0000   0.0000   0.0000   0.0000   0.0000   0.0000   0.0000

          k = 0.0000-0.5000-0.5000 (192516 PWs)   bands (ev):

   -79.2418 -44.8499 -44.8499 -44.8491  -9.0284  -8.7929  -8.7929  -8.6905
     2.0367   2.1597   2.3265   3.2581   3.2581   3.9635   3.9635   5.2714
     5.4852   5.9510   6.2430   6.5804   6.5804   6.7696   6.7972   6.7972
     9.6964  16.9256  16.9256  16.9387  17.1738  19.0913  19.3974  20.0986

     occupation numbers 
     1.0000   1.0000   1.0000   1.0000   1.0000   1.0000   1.0000   1.0000
     1.0000   1.0000   1.0000   1.0000   1.0000   1.0000   1.0000   1.0000
     1.0000   1.0000   1.0000   1.0000   1.0000   1.0000   1.0000   1.0000
     1.0000   0.0000   0.0000   0.0000   0.0000   0.0000   0.0000   0.0000

          k =-0.5000-0.5000-0.5000 (192672 PWs)   bands (ev):

   -79.2418 -44.8498 -44.8498 -44.8498  -8.7282  -8.7282  -8.7282  -8.6207
     1.8113   1.8113   1.8113   2.0363   2.0363   2.3229   5.1520   5.1520
     5.1520   6.7655   6.7655   6.7655   7.3118   7.3118   7.3118   9.6920
     9.6920  15.3219  15.3219  15.3219  15.4903  19.6221  20.4540  20.4540

     occupation numbers 
     1.0000   1.0000   1.0000   1.0000   1.0000   1.0000   1.0000   1.0000
     1.0000   1.0000   1.0000   1.0000   1.0000   1.0000   1.0000   1.0000
     1.0000   1.0000   1.0000   1.0000   1.0000   1.0000   1.0000   1.0000
     1.0000   0.0000   0.0000   0.0000   0.0000   0.0000   0.0000   0.0000

 ------ SPIN DOWN ----------


          k = 0.0000 0.0000 0.0000 (192431 PWs)   bands (ev):

   -74.6018 -40.2743 -40.2743 -40.2743  -9.9196  -8.3595  -8.3335  -8.3335
     3.3786   3.3786   3.3786   6.1276   6.1276   6.1276   6.1590   6.1590
     6.1590   7.4990   7.4990   7.4990   7.5369  12.2009  12.2009  12.2895
    14.2005  14.2005  17.7882  17.7882  17.8029  18.1286  18.3757  18.3757

     occupation numbers 
     1.0000   1.0000   1.0000   1.0000   1.0000   1.0000   1.0000   1.0000
     1.0000   1.0000   1.0000   1.0000   1.0000   1.0000   1.0000   1.0000
     1.0000   1.0000   1.0000   1.0000   1.0000   0.0000   0.0000   0.0000
     0.0000   0.0000   0.0000   0.0000   0.0000   0.0000   0.0000   0.0000

          k = 0.0000 0.0000-0.5000 (192616 PWs)   bands (ev):

   -74.6018 -40.2756 -40.2742 -40.2742  -9.1745  -9.1398  -8.3019  -8.2871
     4.0936   4.4646   4.5392   4.5392   4.6364   4.8536   5.5897   5.7188
     6.4396   6.7306   6.7385   6.7385   8.8080  12.3639  13.0604  14.2147
    14.2706  15.7078  16.4611  18.8097  19.2674  19.2674  19.9682  20.1038

     occupation numbers 
     1.0000   1.0000   1.0000   1.0000   1.0000   1.0000   1.0000   1.0000
     1.0000   1.0000   1.0000   1.0000   1.0000   1.0000   1.0000   1.0000
     1.0000   1.0000   1.0000   1.0000   1.0000   0.0000   0.0000   0.0000
     0.0000   0.0000   0.0000   0.0000   0.0000   0.0000   0.0000   0.0000

          k = 0.0000-0.5000-0.5000 (192516 PWs)   bands (ev):

   -74.6018 -40.2755 -40.2755 -40.2741  -8.7002  -8.6901  -8.6901  -8.6860
     3.7667   3.8516   3.9960   3.9960   4.8185   5.3901   5.4839   5.5129
     6.1468   6.8398   6.8398   6.8425   8.8564  13.0761  13.4043  14.2686
    15.8540  17.1543  17.1543  17.2518  17.3820  19.4051  19.4105  20.3250

     occupation numbers 
     1.0000   1.0000   1.0000   1.0000   1.0000   1.0000   1.0000   1.0000
     1.0000   1.0000   1.0000   1.0000   1.0000   1.0000   1.0000   1.0000
     1.0000   1.0000   1.0000   1.0000   1.0000   0.0000   0.0000   0.0000
     0.0000   0.0000   0.0000   0.0000   0.0000   0.0000   0.0000   0.0000

          k =-0.5000-0.5000-0.5000 (192672 PWs)   bands (ev):

   -74.6018 -40.2754 -40.2754 -40.2754  -8.6247  -8.6247  -8.6247  -8.6211
     2.4135   2.7255   2.8465   2.8465   6.1427   6.1427   6.4548   6.7848
     6.7848   6.8385   6.8385   6.8385   9.2394  13.4428  13.4428  15.4938
    15.5640  15.5640  15.5640  15.8538  15.8538  20.2203  20.5704  20.5705

     occupation numbers 
     1.0000   1.0000   1.0000   1.0000   1.0000   1.0000   1.0000   1.0000
     1.0000   1.0000   1.0000   1.0000   1.0000   1.0000   1.0000   1.0000
     1.0000   1.0000   1.0000   1.0000   1.0000   0.0000   0.0000   0.0000
     0.0000   0.0000   0.0000   0.0000   0.0000   0.0000   0.0000   0.0000

     the spin up/dw Fermi energies are    11.2551   11.2551 ev

!    total energy              =    -382.01848133 Ry
     estimated scf accuracy    <          8.7E-11 Ry
     smearing contrib. (-TS)   =      -0.00000000 Ry
     internal energy E=F+TS    =    -382.01848133 Ry

     The total energy is F=E-TS. E is the sum of the following terms:
     one-electron contribution =    -239.84129676 Ry
     hartree contribution      =     146.92407701 Ry
     xc contribution           =     -58.61327323 Ry
     ewald contribution        =    -230.48798836 Ry
     Hubbard energy            =       0.00000000 Ry

     total magnetization       =     4.00 Bohr mag/cell
     absolute magnetization    =     4.01 Bohr mag/cell

     convergence has been achieved in  20 iterations

     Forces acting on atoms (cartesian axes, Ry/au):

     atom    1 type  1   force =     0.00000000    0.00000000    0.00000000
     atom    2 type  2   force =     0.00000000    0.00000000    0.00000000
     atom    3 type  2   force =     0.00000000    0.00000000    0.00000000
     atom    4 type  2   force =     0.00000000    0.00000000    0.00000000
     atom    5 type  3   force =     0.00000000   -0.00000000   -0.00000000
     atom    6 type  3   force =     0.00000000    0.00000000   -0.00000000
     atom    7 type  3   force =     0.00000000    0.00000000   -0.00000000
     atom    8 type  3   force =     0.00000000    0.00000000   -0.00000000
     The non-local contrib.  to forces
     atom    1 type  1   force =     0.00000000    0.00000000    0.00000000
     atom    2 type  2   force =     0.00000000    0.00000000   -0.00000000
     atom    3 type  2   force =     0.00000000    0.00000000    0.00000000
     atom    4 type  2   force =     0.00000000    0.00000000    0.00000000
     atom    5 type  3   force =     0.00000000    0.00000000    0.00000000
     atom    6 type  3   force =     0.00000000   -0.00000000    0.00000000
     atom    7 type  3   force =     0.00000000    0.00000000    0.00000000
     atom    8 type  3   force =     0.00000000    0.00000000    0.00000000
     The ionic contribution  to forces
     atom    1 type  1   force =    -0.00000000   -0.00000000   -0.00000000
     atom    2 type  2   force =    -0.00000000    0.00000000    0.00000000
     atom    3 type  2   force =     0.00000000   -0.00000000    0.00000000
     atom    4 type  2   force =     0.00000000    0.00000000   -0.00000000
     atom    5 type  3   force =     0.00000000    0.00000000    0.00000000
     atom    6 type  3   force =     0.00000000   -0.00000000   -0.00000000
     atom    7 type  3   force =    -0.00000000    0.00000000   -0.00000000
     atom    8 type  3   force =    -0.00000000   -0.00000000    0.00000000
     The local contribution  to forces
     atom    1 type  1   force =     0.00000000    0.00000000    0.00000000
     atom    2 type  2   force =    -0.00000000    0.00000000   -0.00000000
     atom    3 type  2   force =     0.00000000   -0.00000000   -0.00000000
     atom    4 type  2   force =     0.00000000    0.00000000   -0.00000000
     atom    5 type  3   force =     0.00000000    0.00000000    0.00000000
     atom    6 type  3   force =     0.00000000    0.00000000    0.00000000
     atom    7 type  3   force =     0.00000000    0.00000000    0.00000000
     atom    8 type  3   force =     0.00000000    0.00000000    0.00000000
     The core correction contribution to forces
     atom    1 type  1   force =     0.00000000    0.00000000    0.00000000
     atom    2 type  2   force =     0.00000000    0.00000000    0.00000000
     atom    3 type  2   force =     0.00000000    0.00000000    0.00000000
     atom    4 type  2   force =     0.00000000    0.00000000    0.00000000
     atom    5 type  3   force =     0.00000000    0.00000000    0.00000000
     atom    6 type  3   force =     0.00000000    0.00000000    0.00000000
     atom    7 type  3   force =     0.00000000    0.00000000    0.00000000
     atom    8 type  3   force =     0.00000000    0.00000000    0.00000000
     The Hubbard contrib.    to forces
     atom    1 type  1   force =     0.00000000    0.00000000    0.00000000
     atom    2 type  2   force =     0.00000000    0.00000000    0.00000000
     atom    3 type  2   force =     0.00000000    0.00000000    0.00000000
     atom    4 type  2   force =     0.00000000    0.00000000    0.00000000
     atom    5 type  3   force =     0.00000000    0.00000000    0.00000000
     atom    6 type  3   force =     0.00000000    0.00000000    0.00000000
     atom    7 type  3   force =     0.00000000    0.00000000    0.00000000
     atom    8 type  3   force =     0.00000000    0.00000000    0.00000000
     The SCF correction term to forces
     atom    1 type  1   force =    -0.00000000    0.00000000    0.00000000
     atom    2 type  2   force =    -0.00000000   -0.00000000   -0.00000000
     atom    3 type  2   force =    -0.00000000    0.00000000    0.00000000
     atom    4 type  2   force =     0.00000000    0.00000000    0.00000000
     atom    5 type  3   force =    -0.00000000   -0.00000000   -0.00000000
     atom    6 type  3   force =     0.00000000    0.00000000    0.00000000
     atom    7 type  3   force =     0.00000000   -0.00000000    0.00000000
     atom    8 type  3   force =     0.00000000   -0.00000000    0.00000000

     Total force =     0.000000     Total SCF correction =     0.000000


     Computing stress (Cartesian axis) and pressure

          total   stress  (Ry/bohr**3)                   (kbar)     P=      187.09
   0.00127181   0.00000000   0.00000000          187.09        0.00        0.00
   0.00000000   0.00127181   0.00000000            0.00      187.09        0.00
   0.00000000   0.00000000   0.00127181            0.00        0.00      187.09

     kinetic stress (kbar)  48472.05      0.00      0.00
                                0.00  48472.05      0.00
                                0.00      0.00  48472.05

     local   stress (kbar) -16724.17      0.00     -0.00
                                0.00 -16724.17     -0.00
                               -0.00     -0.00 -16724.17

     nonloc. stress (kbar) -18017.73      0.00      0.00
                                0.00 -18017.73      0.00
                                0.00      0.00 -18017.73

     hartree stress (kbar)  14297.30     -0.00      0.00
                               -0.00  14297.30      0.00
                                0.00      0.00  14297.30

     exc-cor stress (kbar)  -5418.58     -0.00     -0.00
                               -0.00  -5418.58      0.00
                               -0.00      0.00  -5418.58

     corecor stress (kbar)      0.00      0.00      0.00
                                0.00      0.00      0.00
                                0.00      0.00      0.00

     ewald   stress (kbar) -22428.97      0.00     -0.00
                                0.00 -22428.97      0.00
                               -0.00      0.00 -22428.97

     hubbard stress (kbar)      7.19      0.00      0.00
                                0.00      7.19      0.00
                                0.00      0.00      7.19

     DFT-D   stress (kbar)      0.00      0.00      0.00
                                0.00      0.00      0.00
                                0.00      0.00      0.00

     XDM     stress (kbar)      0.00      0.00      0.00
                                0.00      0.00      0.00
                                0.00      0.00      0.00

     dft-nl  stress (kbar)      0.00      0.00      0.00
                                0.00      0.00      0.00
                                0.00      0.00      0.00

     TS-vdW  stress (kbar)      0.00      0.00      0.00
                                0.00      0.00      0.00
                                0.00      0.00      0.00



     Writing output data file pwscf_output/pwscf.save/
 
     init_run     :      2.38s CPU      2.64s WALL (       1 calls)
     electrons    :     55.60s CPU     58.36s WALL (       1 calls)
     forces       :      0.26s CPU      0.27s WALL (       1 calls)
     stress       :      0.98s CPU      1.00s WALL (       1 calls)

     Called by init_run:
     wfcinit      :      1.55s CPU      1.67s WALL (       1 calls)
     wfcinit:atom :      0.03s CPU      0.03s WALL (       8 calls)
     wfcinit:wfcr :      1.38s CPU      1.49s WALL (       8 calls)
     potinit      :      0.18s CPU      0.25s WALL (       1 calls)
     hinit0       :      0.09s CPU      0.15s WALL (       1 calls)

     Called by electrons:
     c_bands      :     44.95s CPU     45.40s WALL (      20 calls)
     sum_band     :      7.62s CPU      7.71s WALL (      20 calls)
     v_of_rho     :      2.12s CPU      2.30s WALL (      21 calls)
     v_h          :      0.09s CPU      0.09s WALL (      21 calls)
     v_xc         :      2.03s CPU      2.21s WALL (      21 calls)
     mix_rho      :      0.86s CPU      0.90s WALL (      20 calls)

     Called by c_bands:
     init_us_2    :      0.41s CPU      0.43s WALL (     368 calls)
     cegterg      :     44.00s CPU     44.32s WALL (     160 calls)

     Called by sum_band:
     sum_band:wei :      0.00s CPU      0.00s WALL (      20 calls)
     sum_band:loo :      6.94s CPU      6.99s WALL (      20 calls)
     sum_band:buf :      0.23s CPU      0.23s WALL (     160 calls)
     sum_band:ini :      0.18s CPU      0.18s WALL (     160 calls)

     Called by *egterg:
     cdiaghg      :      2.89s CPU      2.95s WALL (     728 calls)
     cegterg:over :      3.38s CPU      3.41s WALL (     568 calls)
     cegterg:upda :      2.71s CPU      2.72s WALL (     568 calls)
     cegterg:last :      2.65s CPU      2.66s WALL (     345 calls)
     cdiaghg:chol :      0.21s CPU      0.24s WALL (     728 calls)
     cdiaghg:inve :      0.04s CPU      0.04s WALL (     728 calls)
     cdiaghg:para :      0.20s CPU      0.20s WALL (    1456 calls)
     h_psi        :     32.45s CPU     32.77s WALL (     736 calls)
     g_psi        :      0.15s CPU      0.15s WALL (     568 calls)

     Called by h_psi:
     h_psi:calbec :      0.88s CPU      0.89s WALL (     736 calls)
     vloc_psi     :     29.34s CPU     29.61s WALL (     736 calls)
     add_vuspsi   :      1.08s CPU      1.11s WALL (     736 calls)
     vhpsi        :      0.67s CPU      0.68s WALL (     736 calls)

     General routines
     calbec       :      1.47s CPU      1.49s WALL (    1784 calls)
     fft          :      0.94s CPU      1.13s WALL (     408 calls)
     ffts         :      0.08s CPU      0.10s WALL (      40 calls)
     fftw         :     30.18s CPU     30.46s WALL (   32162 calls)
     davcio       :      0.00s CPU      0.00s WALL (       8 calls)
 
     Parallel routines
     fft_scatt_xy :      4.44s CPU      4.47s WALL (   32610 calls)
     fft_scatt_yz :     15.63s CPU     15.93s WALL (   32610 calls)

     Hubbard U routines
     new_ns       :      0.29s CPU      0.29s WALL (      20 calls)
     new_ns       :      0.29s CPU      0.29s WALL (      20 calls)
     vhpsi        :      0.67s CPU      0.68s WALL (     736 calls)
     force_hub    :      0.10s CPU      0.10s WALL (       1 calls)
     stres_hub    :      0.33s CPU      0.34s WALL (       1 calls)
 
     PWSCF        :     59.89s CPU   1m40.38s WALL

 
   This run was terminated on:  11:26:55  22Nov2021            

=------------------------------------------------------------------------------=
   JOB DONE.
=------------------------------------------------------------------------------=
