  <PP_INFO>

############################################################
#    Opium Parameter File                                  #
############################################################
#-----------------------------------------------------------
#Command line   : opium Ru_frl_rMDF Ru_frl_rMDF.log ae ps nl tc2 ke upf qmcpack rpt 
 
#Opium version  : 4.1 
#Compile Host   : cori07 
#Compile OS     : Linux 4.12.14-150.69.1.22005.0.PTF.1183816-default x86_64 
#Compile Date   : Wed Jul 14 15:48:57 PDT 2021 
#-----------------------------------------------------------
#Execution Host : cori07 
#Execution Date : Tue Jul 27 11:20:06 2021
 
#-----------------------------------------------------------
############################################################
[Atom]
Ru
11            
100   2.00  -
200   2.00  -
210   6.00  -
300   2.00  -
310   6.00  -
320  10.00  -
400   2.00  -
410   6.00  -
420   5.00  -
500   0.00  -
510   0.00  -

[Pseudo]
5 -1 -1 -1 -1 -1
g

[Relativity]
frl

[XC]
pbe

[KBdesign]
p

[Gaussinfo]
16 5 3
2 4 4 2 3   4 4 2
2 11.500590  209.786493
2 5.068575   30.214307
2 10.532634  48.751244
2 10.192010  97.496529
2 4.734892   7.860188
2 4.509065   15.329751
2 8.877977   26.967506
2 8.766122   40.432303
2 3.170196   3.340758
2 3.228851   5.256352
2 7.820249  -8.847525
2 7.839647  -11.835518
1 30.00000   16.00000
3 30.00000   480
2 27.55000  -156.921
2 10.532634 -97.502488
2 10.192010  97.496529
2 4.734892  -15.720375
2 4.509065   15.329751
2 8.877977 -26.967506
2 8.766122  26.954869
2 3.170196  -3.340758
2 3.228851   3.504235
2 7.820249  0.000000
2 7.839647 -0.000000

[Configs]
15

400   2.00  -
410   6.00  -
420   8.00  -
500   0.00  -
510   0.00  -

400   2.00  -
410   6.00  -
420   7.00  -
500   1.00  -
510   0.00  -


400   2.00  -
410   6.00  -
420   7.00  -
500   0.00  -
510   0.00  -

400   2.00  -
410   6.00  -
420   6.00  -
500   1.00  -
510   0.00  -

400   2.00  -
410   6.00  -
420   6.00  -
500   0.00  -
510   1.00  -


400   2.00  -
410   6.00  -
420   6.00  -
500   0.00  -
510   0.00  -

400   2.00  -
410   6.00  -
420   5.00  -
500   1.00  -
510   0.00  -

400   2.00  -
410   6.00  -
420   5.00  -
500   0.00  -
510   1.00  -


400   2.00  -
410   6.00  -
420   4.00  -
500   1.00  -
510   0.00  -

400   2.00  -
410   6.00  -
420   4.00  -
500   0.00  -
510   0.00  -

400   2.00  -
410   6.00  -
420   4.00  -
500   0.00  -
510   1.00  -


400   2.00  -
410   6.00  -
420   4.00  -
500   0.00  -
510   0.00  -

400   2.00  -
410   6.00  -
420   3.00  -
500   1.00  -
510   0.00  -


400   2.00  -
410   6.00  -
420   3.00  -
500   0.00  -
510   0.00  -


400   2.00  -
410   6.00  -
420   2.00  -
500   0.00  -
510   0.00  -


############################################################
  </PP_INFO>



<PP_HEADER>
   0         Version Number
   Ru        Element
   NC        Norm - Conserving pseudopotential
    F      Nonlinear Core Correction
SLA  PW   PBE  PBE     PBE  Exchange-Correlation functional
 16          Z valence
 0          Total energy
 0.000000   0.000000     Suggested cutoff for wfc and rho
 2           Max angular momentum component
 1173           Number of points in mesh
 5  4     Number of Wavefuncitons, Number of Projectors
 Wavefunctions         nl  l   occ
                       S  0  2.000000
                       P  1  2.000000
                       P  1  4.000000
                       D  2  2.000000
                       D  2  3.000000
</PP_HEADER>
<PP_MESH>
  <PP_R>
 2.8325816747135229e-05  2.8696456302129749e-05  2.9071945626539671e-05  2.9452348178954528e-05 
 2.9837728248311057e-05  3.0228150964758265e-05  3.0623682310664411e-05  3.1024389131768386e-05 
 3.1430339148476679e-05  3.1841600967308309e-05  3.2258244092489502e-05  3.2680338937700076e-05 
 3.3107956837973484e-05  3.3541170061752647e-05  3.3980051823103510e-05  3.4424676294088257e-05 
 3.4875118617300763e-05  3.5331454918565753e-05  3.5793762319804261e-05  3.6262118952067434e-05 
 3.6736603968740853e-05  3.7217297558921662e-05  3.7704280960970699e-05  3.8197636476242005e-05 
 3.8697447482991836e-05  3.9203798450469963e-05  3.9716774953195050e-05  4.0236463685416993e-05 
 4.0762952475768450e-05  4.1296330302108079e-05  4.1836687306558025e-05  4.2384114810738146e-05 
 4.2938705331199609e-05  4.3500552595060280e-05  4.4069751555845045e-05  4.4646398409533018e-05 
 4.5230590610814946e-05  4.5822426889563286e-05  4.6422007267517768e-05  4.7029433075189330e-05 
 4.7644806968985239e-05  4.8268232948558114e-05  4.8899816374382369e-05  4.9539663985560180e-05 
 5.0187883917860739e-05  5.0844585721995445e-05  5.1509880382132204e-05  5.2183880334652030e-05 
 5.2866699487151102e-05  5.3558453237691354e-05  5.4259258494303128e-05  5.4969233694742684e-05 
 5.5688498826508731e-05  5.6417175447120487e-05  5.7155386704661136e-05  5.7903257358590220e-05 
 5.8660913800828257e-05  5.9428484077117293e-05  6.0206097908660948e-05  6.0993886714047447e-05 
 6.1791983631459980e-05  6.2600523541177130e-05  6.3419643088368036e-05  6.4249480706185755e-05 
 6.5090176639162812e-05  6.5941872966912812e-05  6.6804713628142235e-05  6.7678844444976508e-05 
 6.8564413147604238e-05  6.9461569399243783e-05  7.0370464821437056e-05  7.1291253019673673e-05 
 7.2224089609350693e-05  7.3169132242072006e-05  7.4126540632291852e-05  7.5096476584306877e-05 
 7.6079104019601609e-05  7.7074589004551215e-05  7.8083099778487560e-05  7.9104806782131804e-05 
 8.0139882686399341e-05  8.1188502421581521e-05  8.2250843206909454e-05  8.3327084580504313e-05 
 8.4417408429719802e-05  8.5521999021881520e-05  8.6641043035428559e-05  8.7774729591462729e-05 
 8.8923250285710128e-05  9.0086799220901758e-05  9.1265573039577000e-05  9.2459770957316816e-05 
 9.3669594796411641e-05  9.4895249019969743e-05  9.6136940766472186e-05  9.7394879884779304e-05 
 9.8669278969596176e-05  9.9960353397401334e-05  1.0126832136284595e-04  1.0259340391562932e-04 
 1.0393582499785664e-04  1.0529581148188593e-04  1.0667359320866986e-04  1.0806940302659955e-04 
 1.0948347683085634e-04  1.1091605360327891e-04  1.1236737545275129e-04  1.1383768765612042e-04 
 1.1532723869964812e-04  1.1683628032100606e-04  1.1836506755181989e-04  1.1991385876077030e-04 
 1.2148291569725796e-04  1.2307250353563943e-04  1.2468289092004291e-04  1.2631435000976923e-04 
 1.2796715652528754e-04  1.2964158979483287e-04  1.3133793280161300e-04  1.3305647223163365e-04 
 1.3479749852214867e-04  1.3656130591074505e-04  1.3834819248506947e-04  1.4015846023320607e-04 
 1.4199241509471261e-04  1.4385036701232589e-04  1.4573262998434204e-04  1.4763952211768329e-04 
 1.4957136568165876e-04  1.5152848716242875e-04  1.5351121731818182e-04  1.5551989123503303e-04 
 1.5755484838365539e-04  1.5961643267665035e-04  1.6170499252667018e-04  1.6382088090530060e-04 
 1.6596445540271353e-04  1.6813607828810098e-04  1.7033611657089925e-04  1.7256494206281445e-04 
 1.7482293144065948e-04  1.7711046631001368e-04  1.7942793326971416e-04  1.8177572397719302e-04 
 1.8415423521466782e-04  1.8656386895619885e-04  1.8900503243562353e-04  1.9147813821538006e-04 
 1.9398360425623167e-04  1.9652185398790213e-04  1.9909331638063760e-04  2.0169842601770277e-04 
 2.0433762316882665e-04  2.0701135386460941e-04  2.0972006997190234e-04  2.1246422927017453e-04 
 2.1524429552887884e-04  2.1806073858582977e-04  2.2091403442660732e-04  2.2380466526499977e-04 
 2.2673311962449893e-04  2.2969989242086123e-04  2.3270548504575065e-04  2.3575040545147430e-04 
 2.3883516823682826e-04  2.4196029473406484e-04  2.4512631309700039e-04  2.4833375839027370e-04 
 2.5158317267977331e-04  2.5487510512424801e-04  2.5821011206811622e-04  2.6158875713548895e-04 
 2.6501161132542415e-04  2.6847925310842654e-04  2.7199226852421093e-04  2.7555125128074379e-04 
 2.7915680285458178e-04  2.8280953259252230e-04  2.8651005781458533e-04  2.9025900391834038e-04 
 2.9405700448460222e-04  2.9790470138450596e-04  3.0180274488798603e-04  3.0575179377367162e-04 
 3.0975251544022381e-04  3.1380558601912635e-04  3.1791169048895376e-04  3.2207152279113438e-04 
 3.2628578594722809e-04  3.3055519217773863e-04  3.3488046302248056e-04  3.3926232946252113e-04 
 3.4370153204371808e-04  3.4819882100187329e-04  3.5275495638952470e-04  3.5737070820439690e-04 
 3.6204685651953274e-04  3.6678419161512670e-04  3.7158351411208535e-04  3.7644563510733369e-04 
 3.8137137631089264e-04  3.8636157018474842e-04  3.9141706008354347e-04  3.9653870039710304e-04 
 4.0172735669483014e-04  4.0698390587198873e-04  4.1230923629790076e-04  4.1770424796608291e-04 
 4.2316985264634794e-04  4.2870697403889555e-04  4.3431654793041954e-04  4.3999952235225927e-04 
 4.4575685774061790e-04  4.5158952709887915e-04  4.5749851616204711e-04  4.6348482356333695e-04 
 4.6954946100294777e-04  4.7569345341904115e-04  4.8191783916095904e-04  4.8822367016470593e-04 
 4.9461201213073030e-04  5.0108394470402924e-04  5.0764056165661126e-04  5.1428297107234723e-04 
 5.2101229553423744e-04  5.2782967231413259e-04  5.3473625356493452e-04  5.4173320651531307e-04 
 5.4882171366696993e-04  5.5600297299448543e-04  5.6327819814777776e-04  5.7064861865721366e-04 
 5.7811548014140182e-04  5.8568004451770440e-04  5.9334359021550557e-04  6.0110741239226837e-04 
 6.0897282315241954e-04  6.1694115176909737e-04  6.2501374490880391e-04  6.3319196685899311e-04 
 6.4147719975863975e-04  6.4987084383182352e-04  6.5837431762437004e-04  6.6698905824358985e-04 
 6.7571652160115109e-04  6.8455818265913395e-04  6.9351553567930074e-04  7.0259009447563132e-04 
 7.1178339267016072e-04  7.2109698395216471e-04  7.3053244234073738e-04  7.4009136245080332e-04 
 7.4977535976261244e-04  7.5958607089475938e-04  7.6952515388077614e-04  7.7959428844934263e-04 
 7.8979517630816710e-04  8.0012954143157645e-04  8.1059913035187346e-04  8.2120571245450466e-04 
 8.3195108027708938e-04  8.4283704981236499e-04  8.5386546081509256e-04  8.6503817711298069e-04 
 8.7635708692167496e-04  8.8782410316387377e-04  8.9944116379261441e-04  9.1121023211879312e-04 
 9.2313329714296879e-04  9.3521237389150764e-04  9.4744950375713025e-04  9.5984675484390926e-04 
 9.7240622231678541e-04  9.8513002875565332e-04  9.9802032451408603e-04  1.0110792880827465e-03 
 1.0243091264575594e-03  1.0377120755126991e-03  1.0512904003784546e-03  1.0650463958240474e-03 
 1.0789823866454477e-03  1.0931007280582741e-03  1.1074038060958273e-03  1.1218940380123390e-03 
 1.1365738726914910e-03  1.1514457910602838e-03  1.1665123065083183e-03  1.1817759653125646e-03 
 1.1972393470676900e-03  1.2129050651220150e-03  1.2287757670191776e-03  1.2448541349455713e-03 
 1.2611428861836439e-03  1.2776447735711237e-03  1.2943625859662552e-03  1.3112991487191237e-03 
 1.3284573241491438e-03  1.3458400120288023e-03  1.3634501500737230e-03  1.3812907144391501e-03 
 1.3993647202229223e-03  1.4176752219750355e-03  1.4362253142138667e-03  1.4550181319491551e-03 
 1.4740568512118279e-03  1.4933446895907523e-03  1.5128849067765225e-03  1.5326808051123501e-03 
 1.5527357301521709e-03  1.5730530712260481e-03  1.5936362620129825e-03  1.6144887811212045e-03 
 1.6356141526760752e-03  1.6570159469156680e-03  1.6786977807941481e-03  1.7006633185930452e-03 
 1.7229162725405282e-03  1.7454604034387775e-03  1.7682995212995726e-03  1.7914374859881932e-03 
 1.8148782078757383e-03  1.8386256485000002e-03  1.8626838212349658e-03  1.8870567919690876e-03 
 1.9117486797924298e-03  1.9367636576928041e-03  1.9621059532610131e-03  1.9877798494053250e-03 
 2.0137896850752966e-03  2.0401398559950585e-03  2.0668348154062139e-03  2.0938790748204397e-03 
 2.1212772047819448e-03  2.1490338356399030e-03  2.1771536583309928e-03  2.2056414251721769e-03 
 2.2345019506638548e-03  2.2637401123035282e-03  2.2933608514100995e-03  2.3233691739589792e-03 
 2.3537701514281012e-03  2.3845689216550159e-03  2.4157706897051947e-03  2.4473807287517016e-03 
 2.4794043809663702e-03  2.5118470584226445e-03  2.5447142440102339e-03  2.5780114923617246e-03 
 2.6117444307913410e-03  2.6459187602459657e-03  2.6805402562686148e-03  2.7156147699745180e-03 
 2.7511482290399733e-03  2.7871466387041350e-03  2.8236160827839162e-03  2.8605627247021699e-03 
 2.8979928085293119e-03  2.9359126600385986e-03  2.9743286877751875e-03  3.0132473841392006e-03 
 3.0526753264829539e-03  3.0926191782225452e-03  3.1330856899639890e-03  3.1740817006440836e-03 
 3.2156141386862113e-03  3.2576900231712472e-03  3.3003164650238161e-03  3.3435006682140463e-03 
 3.3872499309750602e-03  3.4315716470363911e-03  3.4764733068735438e-03  3.5219624989739008e-03 
 3.5680469111191962e-03  3.6147343316847709e-03  3.6620326509558140e-03  3.7099498624608607e-03 
 3.7584940643227028e-03  3.8076734606269950e-03  3.8574963628087641e-03  3.9079711910570631e-03 
 3.9591064757379998e-03  4.0109108588363921e-03  4.0633930954162879e-03  4.1165620551005741e-03 
 4.1704267235699874e-03  4.2249962040817046e-03  4.2802797190078104e-03  4.3362866113939086e-03 
 4.3930263465381128e-03  4.4505085135907113e-03  4.5087428271747467e-03  4.5677391290278235e-03 
 4.6275073896653619e-03  4.6880577100656693e-03  4.7494003233770083e-03  4.8115455966470308e-03 
 4.8745040325748308e-03  4.9382862712859269e-03  5.0029030921304694e-03  5.0683654155049751e-03 
 5.1346843046979054e-03  5.2018709677593708e-03  5.2699367593953446e-03  5.3388931828866138e-03 
 5.4087518920328745e-03  5.4795246931222405e-03  5.5512235469265432e-03  5.6238605707227265e-03 
 5.6974480403406934e-03  5.7719983922379613e-03  5.8475242256014253e-03  5.9240383044766899e-03 
 6.0015535599251962e-03  6.0800830922096063e-03  6.1596401730077879e-03  6.2402382476557461e-03 
 6.3218909374199274e-03  6.4046120417992477e-03  6.4884155408572314e-03  6.5733155975846724e-03 
 6.6593265602932321e-03  6.7464629650403210e-03  6.8347395380857386e-03  6.9241711983804334e-03 
 7.0147730600878507e-03  7.1065604351382627e-03  7.1995488358165133e-03  7.2937539773836471e-03 
 7.3891917807327925e-03  7.4858783750798713e-03  7.5838301006894556e-03  7.6830635116363040e-03 
 7.7835953786030533e-03  7.8854426917144976e-03  7.9886226634089570e-03  8.0931527313472269e-03 
 8.1990505613595902e-03  8.3063340504313486e-03  8.4150213297275074e-03  8.5251307676569559e-03 
 8.6366809729767745e-03  8.7496907979371635e-03  8.8641793414675121e-03  8.9801659524041746e-03 
 9.0976702327604554e-03  9.2167120410394186e-03  9.3373114955899745e-03  9.4594889780069899e-03 
 9.5832651365757859e-03  9.7086608897617634e-03  9.8356974297456618e-03  9.9643962260050987e-03 
 1.0094779028942957e-02  1.0226867873563257e-02  1.0360685083195134e-02  1.0496253273265496e-02 
 1.0633595355121135e-02  1.0772734539900778e-02  1.0913694342457812e-02  1.1056498585334373e-02 
 1.1201171402787390e-02  1.1347737244867347e-02  1.1496220881550402e-02  1.1646647406924567e-02 
 1.1799042243430639e-02  1.1953431146158712e-02  1.2109840207200811e-02  1.2268295860060514e-02 
 1.2428824884120303e-02  1.2591454409167311e-02  1.2756211919978345e-02  1.2923125260964879e-02 
 1.3092222640878814e-02  1.3263532637579801e-02  1.3437084202865031e-02  1.3612906667362108e-02 
 1.3791029745486001e-02  1.3971483540460865e-02  1.4154298549407552e-02  1.4339505668497687e-02 
 1.4527136198175210e-02  1.4717221848446226e-02  1.4909794744238029e-02  1.5104887430828362e-02 
 1.5302532879345599e-02  1.5502764492340953e-02  1.5705616109433593e-02  1.5911122013029608e-02 
 1.6119316934115838e-02  1.6330236058129468e-02  1.6543915030904480e-02  1.6760389964695817e-02 
 1.6979697444282536e-02  1.7201874533150661e-02  1.7426958779757015e-02  1.7654988223874998e-02 
 1.7886001403023391e-02  1.8120037358979310e-02  1.8357135644376341e-02  1.8597336329389043e-02 
 1.8840680008504859e-02  1.9087207807384751e-02  1.9336961389813490e-02  1.9589982964740949e-02 
 1.9846315293415503e-02  2.0106001696610795e-02  2.0369086061947043e-02  2.0635612851308157e-02 
 2.0905627108355914e-02  2.1179174466142380e-02  2.1456301154822107e-02  2.1737054009465073e-02 
 2.2021480477971929e-02  2.2309628629092818e-02  2.2601547160551096e-02  2.2897285407273375e-02 
 2.3196893349727240e-02  2.3500421622368074e-02  2.3807921522196351e-02  2.4119445017427032e-02 
 2.4435044756272273e-02  2.4754774075839096e-02  2.5078687011143488e-02  2.5406838304242466e-02 
 2.5739283413485595e-02  2.6076078522887590e-02  2.6417280551623564e-02  2.6762947163648420e-02 
 2.7113136777442339e-02  2.7467908575883535e-02  2.7827322516250329e-02  2.8191439340354094e-02 
 2.8560320584804729e-02  2.8934028591410522e-02  2.9312626517714050e-02  2.9696178347665990e-02 
 3.0084748902438431e-02  3.0478403851379999e-02  3.0877209723113998e-02  3.1281233916781954e-02 
 3.1690544713434209e-02  3.2105211287569595e-02  3.2525303718826087e-02  3.2950893003824429e-02 
 3.3382051068166760e-02  3.3818850778592098e-02  3.4261365955291147e-02  3.4709671384382010e-02 
 3.5163842830549207e-02  3.5623957049848116e-02  3.6090091802676916e-02  3.6562325866918273e-02 
 3.7040739051253019e-02  3.7525412208647996e-02  3.8016427250020308e-02  3.8513867158080660e-02 
 3.9017816001357453e-02  3.9528358948404646e-02  4.0045582282195444e-02  4.0569573414704289e-02 
 4.1100420901679730e-02  4.1638214457610540e-02  4.2183044970887693e-02  4.2735004519164614e-02 
 4.3294186384918727e-02  4.3860685071216238e-02  4.4434596317683463e-02  4.5016017116687006e-02 
 4.5605045729725749e-02  4.6201781704037242e-02  4.6806325889421421e-02  4.7418780455284540e-02 
 4.8039248907905847e-02  4.8667836107930643e-02  4.9304648288091842e-02  4.9949793071163560e-02 
 5.0603379488149643e-02  5.1265517996710169e-02  5.1936320499829020e-02  5.2615900364725812e-02 
 5.3304372442015226e-02  5.4001853085116854e-02  5.4708460169919509e-02  5.5424313114702306e-02 
 5.6149532900316705e-02  5.6884242090632586e-02  5.7628564853251782e-02  5.8382626980492743e-02 
 5.9146555910649698e-02  5.9920480749530131e-02  6.0704532292273725e-02  6.1498843045457378e-02 
 6.2303547249488896e-02  6.3118780901294053e-02  6.3944681777300338e-02  6.4781389456721503e-02 
 6.5629045345146853e-02  6.6487792698438977e-02  6.7357776646944603e-02  6.8239144220021516e-02 
 6.9132044370887380e-02  7.0036628001792875e-02  7.0953047989524620e-02  7.1881459211241713e-02 
 7.2822018570650349e-02  7.3774885024520842e-02  7.4740219609551878e-02  7.5718185469585919e-02 
 7.6708947883180875e-02  7.7712674291542813e-02  7.8729534326823683e-02  7.9759699840789705e-02 
 8.0803344933864624e-02  8.1860645984553143e-02  8.2931781679249306e-02  8.4016933042434933e-02 
 8.5116283467273152e-02  8.6230018746602313e-02  8.7358327104335456e-02  8.8501399227270502e-02 
 8.9659428297317004e-02  9.0832610024143709e-02  9.2021142678254897e-02  9.3225227124497934e-02 
 9.4445066856010049e-02  9.5680868028609242e-02  9.6932839495634984e-02  9.8201192843245036e-02 
 9.9486142426173929e-02  1.0078790540395949e-01  1.0210670177764328e-01  1.0344275442695133e-01 
 1.0479628914796128e-01  1.0616753469126254e-01  1.0755672280061565e-01  1.0896408825211745e-01 
 1.1038986889387893e-01  1.1183430568622206e-01  1.1329764274240282e-01  1.1478012736986619e-01 
 1.1628201011204288e-01  1.1780354479069093e-01  1.1934498854879244e-01  1.2090660189401131e-01 
 1.2248864874271970e-01  1.2409139646460043e-01  1.2571511592783322e-01  1.2736008154487191e-01 
 1.2902657131882103e-01  1.3071486689041875e-01  1.3242525358563498e-01  1.3415802046389211e-01 
 1.3591346036691668e-01  1.3769186996823043e-01  1.3949354982328879e-01  1.4131880442027545e-01 
 1.4316794223156182e-01  1.4504127576583861e-01  1.4693912162093212e-01  1.4886180053730882e-01 
 1.5080963745228188e-01  1.5278296155492588e-01  1.5478210634171088e-01  1.5680740967286402e-01 
 1.5885921382946869e-01  1.6093786557131085e-01  1.6304371619548225e-01  1.6517712159575046e-01 
 1.6733844232270592e-01  1.6952804364469556e-01  1.7174629560955434e-01  1.7399357310714392e-01 
 1.7627025593271015e-01  1.7857672885106923e-01  1.8091338166163440e-01  1.8328060926429138e-01 
 1.8567881172613962e-01  1.8810839434910315e-01  1.9056976773842782e-01  1.9306334787207477e-01 
 1.9558955617102153e-01  1.9814881957048325e-01  2.0074157059206579e-01  2.0336824741686269e-01 
 2.0602929395950920e-01  2.0872515994320448e-01  2.1145630097571624e-01  2.1422317862637935e-01 
 2.1702626050410220e-01  2.1986602033639374e-01  2.2274293804942455e-01  2.2565749984913541e-01 
 2.2861019830340787e-01  2.3160153242530762e-01  2.3463200775742130e-01  2.3770213645729285e-01 
 2.4081243738397975e-01  2.4396343618574148e-01  2.4715566538887515e-01  2.5038966448771388e-01 
 2.5366598003580276e-01  2.5698516573826719e-01  2.6034778254539098e-01  2.6375439874741780e-01 
 2.6720559007059397e-01  2.7070193977446722e-01  2.7424403875045916e-01  2.7783248562172719e-01 
 2.8146788684433360e-01  2.8515085680973740e-01  2.8888201794862928e-01  2.9266200083612104e-01 
 2.9649144429831803e-01  3.0037099552027974e-01  3.0430131015539641e-01  3.0828305243619586e-01 
 3.1231689528660050e-01  3.1640352043565306e-01  3.2054361853273022e-01  3.2473788926426422e-01 
 3.2898704147199154e-01  3.3329179327274849e-01  3.3765287217983536e-01  3.4207101522596700e-01 
 3.4654696908783406e-01  3.5108149021229224e-01  3.5567534494420411e-01  3.6032930965595339e-01 
 3.6504417087865376e-01  3.6982072543507238e-01  3.7465978057429866e-01  3.7956215410816863e-01 
 3.8452867454947737e-01  3.8956018125200043e-01  3.9465752455234604e-01  3.9982156591366408e-01 
 4.0505317807123559e-01  4.1035324517996674e-01  4.1572266296381383e-01  4.2116233886716192e-01 
 4.2667319220818567e-01  4.3225615433421610e-01  4.3791216877914052e-01  4.4364219142286188e-01 
 4.4944719065284500e-01  4.5532814752777634e-01  4.6128605594336575e-01  4.6732192280031409e-01 
 4.7343676817448710e-01  4.7963162548930693e-01  4.8590754169040412e-01  4.9226557742255395e-01 
 4.9870680720892790e-01  5.0523231963269055e-01  5.1184321752097306e-01  5.1854061813125285e-01 
 5.2532565334017367e-01  5.3219946983483490e-01  5.3916322930658445e-01  5.4621810864734743e-01 
 5.5336530014852370e-01  5.6060601170248803e-01  5.6794146700672676e-01  5.7537290577064504e-01 
 5.8290158392508296e-01  5.9052877383456526e-01  5.9825576451234119e-01  6.0608386183822638e-01 
 6.1401438877930037e-01  6.2204868561349180e-01  6.3018811015608778e-01  6.3843403798920906e-01 
 6.4678786269428512e-01  6.5525099608757420e-01  6.6382486845876287e-01  6.7251092881268848e-01 
 6.8131064511422457e-01  6.9022550453636999e-01  6.9925701371158577e-01  7.0840669898641806e-01 
 7.1767610667945547e-01  7.2706680334266038e-01  7.3658037602612081e-01  7.4621843254626086e-01 
 7.5598260175757315e-01  7.6587453382789450e-01  7.7589590051728807e-01  7.8604839546057648e-01 
 7.9633373445356881e-01  8.0675365574303515e-01  8.1730992032047378e-01  8.2800431221972337e-01 
 8.3883863881846821e-01  8.4981473114369066e-01  8.6093444418111775e-01  8.7219965718871861e-01 
 8.8361227401430387e-01  8.9517422341728026e-01  9.0688745939461557e-01  9.1875396151106825e-01 
 9.3077573523374146e-01  9.4295481227100353e-01  9.5529325091586337e-01  9.6779313639381825e-01 
 9.8045658121526491e-01  9.9328572553251848e-01  1.0062827375015031e+00  1.0194498136481760e+00 
 1.0327891792397443e+00  1.0463030886607425e+00  1.0599938257940269e+00  1.0738637044067583e+00 
 1.0879150685414338e+00  1.1021502929120361e+00  1.1165717833053650e+00  1.1311819769876210e+00 
 1.1459833431163107e+00  1.1609783831575380e+00  1.1761696313087622e+00  1.1915596549270728e+00 
 1.2071510549630935e+00  1.2229464664005389e+00  1.2389485587015374e+00  1.2551600362577735e+00 
 1.2715836388475397e+00  1.2882221420987630e+00  1.3050783579580945e+00  1.3221551351661336e+00 
 1.3394553597388728e+00  1.3569819554554412e+00  1.3747378843522300e+00  1.3927261472234835e+00 
 1.4109497841284406e+00  1.4294118749051126e+00  1.4481155396907819e+00  1.4670639394493141e+00 
 1.4862602765053701e+00  1.5057077950855957e+00  1.5254097818669214e+00  1.5453695665320053e+00 
 1.5655905223319622e+00  1.5860760666564502e+00  1.6068296616112177e+00  1.6278548146032072e+00 
 1.6491550789333167e+00  1.6707340543969145e+00  1.6925953878922142e+00  1.7147427740366084e+00 
 1.7371799557910683e+00  1.7599107250927135e+00  1.7829389234956572e+00  1.8062684428202387e+00 
 1.8299032258107502e+00  1.8538472668017705e+00  1.8781046123932195e+00  1.9026793621342306e+00 
 1.9275756692160029e+00  1.9527977411736896e+00  1.9783498405974820e+00  2.0042362858529996e+00 
 2.0304614518111026e+00  2.0570297705872558e+00  2.0839457322905686e+00  2.1112138857826306e+00 
 2.1388388394462834e+00  2.1668252619644459e+00  2.1951778831091349e+00  2.2239014945408040e+00 
 2.2530009506181514e+00  2.2824811692185136e+00  2.3123471325690002e+00  2.3426038880885001e+00 
 2.3732565492407152e+00  2.4043102963983283e+00  2.4357703777185233e+00  2.4676421100299226e+00 
 2.4999308797311435e+00  2.5326421437011160e+00  2.5657814302213073e+00  2.5993543399100147e+00 
 2.6333665466688809e+00  2.6678237986418019e+00  2.7027319191863719e+00  2.7380968078580477e+00 
 2.7739244414071869e+00  2.8102208747891324e+00  2.8469922421875147e+00  2.8842447580509436e+00 
 2.9219847181432645e+00  2.9602185006075588e+00  2.9989525670440669e+00  3.0381934636021968e+00 
 3.0779478220868710e+00  3.1182223610792903e+00  3.1590238870724039e+00  3.2003592956212144e+00 
 3.2422355725081502e+00  3.2846597949236740e+00  3.3276391326623478e+00  3.3711808493345443e+00 
 3.4152923035940153e+00  3.4599809503815204e+00  3.5052543421847280e+00  3.5511201303146098e+00 
 3.5975860661985242e+00  3.6446600026902298e+00  3.6923498953970326e+00  3.7406638040243076e+00 
 3.7896098937376110e+00  3.8391964365425877e+00  3.8894318126829996e+00  3.9403245120569781e+00 
 3.9918831356518480e+00  4.0441163969977110e+00  4.0970331236400552e+00  4.1506422586316294e+00 
 4.2049528620438430e+00  4.2599741124979351e+00  4.3157153087161912e+00  4.3721858710934400e+00 
 4.4293953432891291e+00  4.4873533938402232e+00  4.5460698177952112e+00  4.6055545383694927e+00 
 4.6658176086224250e+00  4.7268692131563110e+00  4.7887196698376338e+00  4.8513794315407681e+00 
 4.9148590879145848e+00  4.9791693671720996e+00  5.0443211379035713e+00  5.1103254109133198e+00 
 5.1771933410805824e+00  5.2449362292447086e+00  5.3135655241150337e+00  5.3830928242057325e+00 
 5.4535298797960046e+00  5.5248885949158906e+00  5.5971810293580866e+00  5.6704194007160771e+00 
 5.7446160864489348e+00  5.8197836259731446e+00  5.8959347227817913e+00  5.9730822465914848e+00 
 6.0512392355173743e+00  6.1304188982765915e+00  6.2106346164206085e+00  6.2918999465967111e+00 
 6.3742286228391176e+00  6.4576345588900663e+00  6.5421318505512609e+00  6.6277347780661069e+00 
 6.7144578085330950e+00  6.8023155983507850e+00  6.8913229956947655e+00  6.9814950430270333e+00 
 7.0728469796382063e+00  7.1653942442229983e+00  7.2591524774893967e+00  7.3541375248019740e+00 
 7.4503654388598024e+00  7.5478524824093887e+00  7.6466151309931343e+00  7.7466700757336886e+00 
 7.8480342261548657e+00  7.9507247130393441e+00  8.0547588913238197e+00  8.1601543430320351e+00 
 8.2669288802461782e+00  8.3751005481171745e+00  8.4846876279143526e+00  8.5957086401150242e+00 
 8.7081823475344944e+00  8.8221277584970128e+00  8.9375641300482371e+00  9.0545109712097052e+00 
 9.1729880462759201e+00  9.2930153781545535e+00  9.4146132517503727e+00  9.5378022173934269e+00 
 9.6626030943121304e+00  9.7890369741516849e+00  9.9171252245387258e+00  1.0046889492692431e+01 
 1.0178351709082971e+01  1.0311534091137808e+01  1.0446459146996496e+01  1.0583149679314609e+01 
 1.0721628789117446e+01  1.0861919879704159e+01  1.1004046660602960e+01  1.1148033151578099e+01 
 1.1293903686689253e+01  1.1441682918404041e+01  1.1591395821764349e+01  1.1743067698607183e+01 
 1.1896724181840716e+01  1.2052391239776334e+01  1.2210095180517355e+01  1.2369862656405068e+01 
 1.2531720668523183e+01  1.2695696571260987e+01  1.2861818076936318e+01  1.3030113260479025e+01 
 1.3200610564175683e+01  1.3373338802476413e+01  1.3548327166864606e+01  1.3725605230790329e+01 
 1.3905202954668319e+01  1.4087150690941378e+01  1.4271479189209991e+01  1.4458219601429079e+01 
 1.4647403487172769e+01  1.4839062818968030e+01  1.5033229987698100e+01  1.5229937808076635e+01 
 1.5429219524193485e+01  1.5631108815132933e+01  1.5835639800665689e+01  1.6042847047015115e+01 
 1.6252765572699012e+01  1.6465430854447849e+01  1.6680878833200406e+01  1.6899145920177880e+01 
 1.7120269003037468e+01  1.7344285452106462e+01  1.7571233126697940e+01  1.7801150381509068e+01 
 1.8034076073103126e+01  1.8270049566476388e+01  1.8509110741710870e+01  1.8751300000714171e+01 
 1.8996658274047505e+01  1.9245227027843068e+01  1.9497048270811806e+01  1.9752164561343175e+01 
 2.0010619014697472e+01  2.0272455310292461e+01  2.0537717699085295e+01  2.0806451011051028e+01 
 2.1078700662758994e+01  2.1354512665048318e+01  2.1633933630803838e+01  2.1917010782833817e+01 
 2.2203791961850701e+01  2.2494325634556315e+01  2.2788660901832834e+01  2.3086847507040986e+01 
 2.3388935844426758e+01  2.3694976967638162e+01  2.4005022598353438e+01  2.4319125135022151e+01 
 2.4637337661720519e+01  2.4959713957122961e+01  2.5286308503590689e+01  2.5617176496379386e+01 
 2.5952373852967330e+01  2.6291957222505584e+01  2.6635983995391840e+01  2.6984512312969539e+01 
 2.7337601077353881e+01  2.7695309961386428e+01  2.8057699418719970e+01  2.8424830694035311e+01 
 2.8796765833391792e+01  2.9173567694713203e+01  2.9555299958410941e+01  2.9942027138146116e+01 
 3.0333814591732562e+01  3.0730728532182479e+01  3.1132836038896382e+01  3.1540205069000027e+01 
 3.1952904468829068e+01  3.2371003985564350e+01  3.2794574279019308e+01  3.3223686933581682e+01 
 3.3658414470311421e+01  3.4098830359196924e+01  3.4545009031571645e+01  3.4997025892693166e+01 
 3.5454957334486856e+01  3.5918880748456303e+01  3.6388874538762657e+01  3.6865018135475104e+01 
 3.7347392007994749e+01  3.7836077678654149e+01  3.8331157736494774e+01  3.8832715851224798e+01 
 3.9340836787359223e+01  3.9855606418545719e+01  4.0377111742077140e+01  4.0905440893594410e+01 