
     Program PWSCF v.6.8 starts on  2Feb2022 at 16:11:59 

     This program is part of the open-source Quantum ESPRESSO suite
     for quantum simulation of materials; please cite
         "P. Giannozzi et al., J. Phys.:Condens. Matter 21 395502 (2009);
         "P. Giannozzi et al., J. Phys.:Condens. Matter 29 465901 (2017);
         "P. Giannozzi et al., J. Chem. Phys. 152 154105 (2020);
          URL http://www.quantum-espresso.org", 
     in publications or presentations arising from this work. More details at
     http://www.quantum-espresso.org/quote

     Parallel version (MPI), running on   512 processors

     MPI processes distributed on    16 nodes
     band groups division:  nbgrp     =      16
     R & G space division:  proc/nbgrp/npool/nimage =      32
     228755 MiB available memory on the printing compute node when the environment starts
 
     Reading input from scf.in

     Current dimensions of program PWSCF are:
     Max number of different atomic species (ntypx) = 10
     Max number of k-points (npk) =  40000
     Max angular momentum in pseudopotentials (lmaxx) =  4
     Message from routine scan_end:
     No INFO block end statement, possibly corrupted file
     Message from routine scan_end:
     No INFO block end statement, possibly corrupted file
     Message from routine scan_end:
     No INFO block end statement, possibly corrupted file

     IMPORTANT: XC functional enforced from input :
     Exchange-correlation= PBE
                           (   1   4   3   4   0   0   0)
     Any further DFT definition will be discarded
     Please, verify this is what you really want


     Fixed quantization axis for GGA:     0.000000    0.000000    1.000000

     Subspace diagonalization in iterative solution of the eigenvalue problem:
     a serial algorithm will be used

 
     Parallelization info
     --------------------
     sticks:   dense  smooth     PW     G-vecs:    dense   smooth      PW
     Min         651     651    172                51432    51432    7007
     Max         652     652    173                51435    51435    7009
     Sum       20857   20857   5529              1645873  1645873  224265
 
     Using Slab Decomposition
 


     bravais-lattice index     =            0
     lattice parameter (alat)  =      11.1928  a.u.
     unit-cell volume          =    2344.5029 (a.u.)^3
     number of atoms/cell      =           16
     number of atomic types    =            3
     number of electrons       =       148.00
     number of Kohn-Sham states=          160
     kinetic-energy cutoff     =     300.0000  Ry
     charge density cutoff     =    1200.0000  Ry
     scf convergence threshold =      1.0E-06
     mixing beta               =       0.3000
     number of iterations used =            8  plain     mixing
     Exchange-correlation= PBE
                           (   1   4   3   4   0   0   0)
     Noncollinear calculation with spin-orbit


     celldm(1)=  11.192848  celldm(2)=   0.000000  celldm(3)=   0.000000
     celldm(4)=   0.000000  celldm(5)=   0.000000  celldm(6)=   0.000000

     crystal axes: (cart. coord. in units of alat)
               a(1) = (   1.000000   0.000000   0.000000 )  
               a(2) = (   0.000000   1.743897   0.000000 )  
               a(3) = (  -0.332749   0.000000   0.958756 )  

     reciprocal axes: (cart. coord. in units 2 pi/alat)
               b(1) = (  1.000000  0.000000  0.347063 )  
               b(2) = (  0.000000  0.573428  0.000000 )  
               b(3) = (  0.000000  0.000000  1.043018 )  


     PseudoPot. # 1 for Ru read from file:
     ./Ru_frl_rMDF.upf
     MD5 check sum: c9026eaeb3567b5b291d39eee14dd616
     Pseudo is Norm-conserving, Zval = 16.0
     Generated by new atomic code, or converted to UPF format
     Using radial grid of 1173 points,  4 beta functions with: 
                l(1) =   0
                l(2) =   1
                l(3) =   2
                l(4) =   2

     PseudoPot. # 2 for Ru read from file:
     ./Ru_frl_rMDF.upf
     MD5 check sum: c9026eaeb3567b5b291d39eee14dd616
     Pseudo is Norm-conserving, Zval = 16.0
     Generated by new atomic code, or converted to UPF format
     Using radial grid of 1173 points,  4 beta functions with: 
                l(1) =   0
                l(2) =   1
                l(3) =   2
                l(4) =   2

     PseudoPot. # 3 for Cl read from file:
     ./Cl.ccECP.upf
     MD5 check sum: a6dbb198d6702c28af0cb842dcffc0a5
     Pseudo is Norm-conserving, Zval =  7.0
     Generated by new atomic code, or converted to UPF format
     Using radial grid of 1149 points,  2 beta functions with: 
                l(1) =   0
                l(2) =   2

     atomic species   valence    mass     pseudopotential
        Ru1           16.00   101.07000     Ru( 1.00)
        Ru2           16.00   101.07000     Ru( 1.00)
        Cl             7.00    35.45300     Cl( 1.00)


     Full LDA+U calculation (l_max = 2) with parameters (eV):
     U(  1) =   2.0000   J(  1) =   0.0000   B(  1) =   0.0000
     U(  2) =   2.0000   J(  2) =   0.0000   B(  2) =   0.0000
     LDA+U on averaged j=l+1/2,l-1/2 radial WFs



     No symmetry found


                                    s                        frac. trans.

      isym =  1     identity                                     

 Time Reversal            0
 cryst.   s( 1) = (     1          0          0      )
                  (     0          1          0      )
                  (     0          0          1      )

 cart.    s( 1) = (  1.0000000  0.0000000  0.0000000 )
                  (  0.0000000  1.0000000  0.0000000 )
                  (  0.0000000  0.0000000  1.0000000 )


   Cartesian axes

     site n.     atom                  positions (alat units)
         1           Ru1 tau(   1) = (   0.5000000  -0.5794969   0.0000000  )
         2           Ru2 tau(   2) = (   0.0000000   0.2924515   0.0000000  )
         3           Ru2 tau(   3) = (   0.5000000   0.5794969   0.0000000  )
         4           Ru1 tau(   4) = (   0.0000000  -0.2924515   0.0000000  )
         5           Cl  tau(   5) = (  -0.3478632   0.8719483   0.2243490  )
         6           Cl  tau(   6) = (   0.1521368   0.0000000   0.2243490  )
         7           Cl  tau(   7) = (   0.3478632   0.8719483  -0.2243490  )
         8           Cl  tau(   8) = (  -0.1521368   0.0000000  -0.2243490  )
         9           Cl  tau(   9) = (  -0.1730366  -0.5723469  -0.2240613  )
        10           Cl  tau(  10) = (   0.3269634   0.2996014  -0.2240613  )
        11           Cl  tau(  11) = (   0.1730366  -0.5723469   0.2240613  )
        12           Cl  tau(  12) = (  -0.3269634   0.2996014   0.2240613  )
        13           Cl  tau(  13) = (   0.1730366   0.5723469   0.2240613  )
        14           Cl  tau(  14) = (  -0.3269634  -0.2996014   0.2240613  )
        15           Cl  tau(  15) = (  -0.1730366   0.5723469  -0.2240613  )
        16           Cl  tau(  16) = (   0.3269634  -0.2996014  -0.2240613  )

   Crystallographic axes

     site n.     atom                  positions (cryst. coord.)
         1           Ru1 tau(   1) = (  0.5000000 -0.3323000  0.0000000  )
         2           Ru2 tau(   2) = (  0.0000000  0.1677000  0.0000000  )
         3           Ru2 tau(   3) = (  0.5000000  0.3323000  0.0000000  )
         4           Ru1 tau(   4) = (  0.0000000 -0.1677000  0.0000000  )
         5           Cl  tau(   5) = ( -0.2700000  0.5000000  0.2340000  )
         6           Cl  tau(   6) = (  0.2300000  0.0000000  0.2340000  )
         7           Cl  tau(   7) = (  0.2700000  0.5000000 -0.2340000  )
         8           Cl  tau(   8) = ( -0.2300000  0.0000000 -0.2340000  )
         9           Cl  tau(   9) = ( -0.2508000 -0.3282000 -0.2337000  )
        10           Cl  tau(  10) = (  0.2492000  0.1718000 -0.2337000  )
        11           Cl  tau(  11) = (  0.2508000 -0.3282000  0.2337000  )
        12           Cl  tau(  12) = ( -0.2492000  0.1718000  0.2337000  )
        13           Cl  tau(  13) = (  0.2508000  0.3282000  0.2337000  )
        14           Cl  tau(  14) = ( -0.2492000 -0.1718000  0.2337000  )
        15           Cl  tau(  15) = ( -0.2508000  0.3282000 -0.2337000  )
        16           Cl  tau(  16) = (  0.2492000 -0.1718000 -0.2337000  )

     number of k points=     8
                       cart. coord. in units 2pi/alat
        k(    1) = (   0.0000000   0.0000000   0.0000000), wk =   0.0000000
        k(    2) = (   0.5000000   0.0000000   0.1735315), wk =   0.1428571
        k(    3) = (   0.0000000   0.2867142   0.0000000), wk =   0.1428571
        k(    4) = (   0.5000000   0.2867142   0.1735315), wk =   0.1428571
        k(    5) = (   0.0000000   0.0000000   0.5215090), wk =   0.1428571
        k(    6) = (   0.5000000   0.0000000   0.6950405), wk =   0.1428571
        k(    7) = (   0.0000000   0.2867142   0.5215090), wk =   0.1428571
        k(    8) = (   0.5000000   0.2867142   0.6950405), wk =   0.1428571

                       cryst. coord.
        k(    1) = (   0.0000000   0.0000000   0.0000000), wk =   0.0000000
        k(    2) = (   0.5000000   0.0000000   0.0000000), wk =   0.1428571
        k(    3) = (   0.0000000   0.5000000   0.0000000), wk =   0.1428571
        k(    4) = (   0.5000000   0.5000000   0.0000000), wk =   0.1428571
        k(    5) = (   0.0000000   0.0000000   0.5000000), wk =   0.1428571
        k(    6) = (   0.5000000   0.0000000   0.5000000), wk =   0.1428571
        k(    7) = (   0.0000000   0.5000000   0.5000000), wk =   0.1428571
        k(    8) = (   0.5000000   0.5000000   0.5000000), wk =   0.1428571

     Dense  grid:  1645873 G-vectors     FFT dimensions: ( 125, 216, 125)

     Dynamical RAM for                 wfc:      31.39 MB

     Dynamical RAM for     wfc (w. buffer):     282.48 MB

     Dynamical RAM for             U proj.:      17.26 MB

     Dynamical RAM for  U proj. (w. buff.):     155.36 MB

     Dynamical RAM for           str. fact:       2.35 MB

     Dynamical RAM for           local pot:       0.00 MB

     Dynamical RAM for          nlocal pot:      12.55 MB

     Dynamical RAM for                qrad:       3.97 MB

     Dynamical RAM for          rho,v,vnew:      19.31 MB

     Dynamical RAM for               rhoin:       6.44 MB

     Dynamical RAM for            rho*nmix:      50.23 MB

     Dynamical RAM for           G-vectors:       3.34 MB

     Dynamical RAM for          h,s,v(r/c):       4.69 MB

     Dynamical RAM for          <psi|beta>:       0.62 MB

     Dynamical RAM for                 psi:      62.77 MB

     Dynamical RAM for                hpsi:      62.77 MB

     Dynamical RAM for      wfcinit/wfcrot:      86.64 MB

     Estimated static dynamical RAM per process >     495.53 MB

     Estimated max dynamical RAM per process >     676.62 MB

     Estimated total dynamical RAM >     338.31 GB
     Generating pointlists ...
     new r_m :   0.1635 (alat units)  1.8304 (a.u.) for type    1
     new r_m :   0.1635 (alat units)  1.8304 (a.u.) for type    2
     new r_m :   0.1635 (alat units)  1.8304 (a.u.) for type    3

     Initial potential from superposition of free atoms

     starting charge  123.99026, renormalised to  148.00000
 --- in v_hubbard ---
Hub. E (dc, noflip, flip, total)    8.8198   9.0550   0.0000   0.2352
 -------
     Number of +U iterations with fixed ns =  0
     Starting occupations:
 --- enter write_ns ---
 LDA+U parameters:
U(  1) =   2.0000   J(  1) =   0.0000   B(  1) =   0.0000
U(  2) =   2.0000   J(  2) =   0.0000   B(  2) =   0.0000
atom    1   Tr[ns(na)] (up, down, total) =   5.00000  1.00000  6.00000
 eigenvalues: 
  0.200  0.200  0.200  0.200  0.200  1.000  1.000  1.000  1.000  1.000
 eigenvectors:
  0.000  0.000  0.000  0.000  0.000  1.000  0.000  0.000  0.000  0.000
  0.000  0.000  0.000  0.000  0.000  0.000  1.000  0.000  0.000  0.000
  0.000  0.000  0.000  0.000  0.000  0.000  0.000  1.000  0.000  0.000
  0.000  0.000  0.000  0.000  0.000  0.000  0.000  0.000  1.000  0.000
  0.000  0.000  0.000  0.000  0.000  0.000  0.000  0.000  0.000  1.000
  1.000  0.000  0.000  0.000  0.000  0.000  0.000  0.000  0.000  0.000
  0.000  1.000  0.000  0.000  0.000  0.000  0.000  0.000  0.000  0.000
  0.000  0.000  1.000  0.000  0.000  0.000  0.000  0.000  0.000  0.000
  0.000  0.000  0.000  1.000  0.000  0.000  0.000  0.000  0.000  0.000
  0.000  0.000  0.000  0.000  1.000  0.000  0.000  0.000  0.000  0.000
 occupations, | n_(i1, i2)^(sigma1, sigma2) |:
  1.000  0.000  0.000  0.000  0.000  0.000  0.000  0.000  0.000  0.000
  0.000  1.000  0.000  0.000  0.000  0.000  0.000  0.000  0.000  0.000
  0.000  0.000  1.000  0.000  0.000  0.000  0.000  0.000  0.000  0.000
  0.000  0.000  0.000  1.000  0.000  0.000  0.000  0.000  0.000  0.000
  0.000  0.000  0.000  0.000  1.000  0.000  0.000  0.000  0.000  0.000
  0.000  0.000  0.000  0.000  0.000  0.200  0.000  0.000  0.000  0.000
  0.000  0.000  0.000  0.000  0.000  0.000  0.200  0.000  0.000  0.000
  0.000  0.000  0.000  0.000  0.000  0.000  0.000  0.200  0.000  0.000
  0.000  0.000  0.000  0.000  0.000  0.000  0.000  0.000  0.200  0.000
  0.000  0.000  0.000  0.000  0.000  0.000  0.000  0.000  0.000  0.200
atomic mx, my, mz =     0.000000    0.000000    4.000000
atom    2   Tr[ns(na)] (up, down, total) =   1.00000  5.00000  6.00000
 eigenvalues: 
  0.200  0.200  0.200  0.200  0.200  1.000  1.000  1.000  1.000  1.000
 eigenvectors:
  1.000  0.000  0.000  0.000  0.000  0.000  0.000  0.000  0.000  0.000
  0.000  1.000  0.000  0.000  0.000  0.000  0.000  0.000  0.000  0.000
  0.000  0.000  1.000  0.000  0.000  0.000  0.000  0.000  0.000  0.000
  0.000  0.000  0.000  1.000  0.000  0.000  0.000  0.000  0.000  0.000
  0.000  0.000  0.000  0.000  1.000  0.000  0.000  0.000  0.000  0.000
  0.000  0.000  0.000  0.000  0.000  1.000  0.000  0.000  0.000  0.000
  0.000  0.000  0.000  0.000  0.000  0.000  1.000  0.000  0.000  0.000
  0.000  0.000  0.000  0.000  0.000  0.000  0.000  1.000  0.000  0.000
  0.000  0.000  0.000  0.000  0.000  0.000  0.000  0.000  1.000  0.000
  0.000  0.000  0.000  0.000  0.000  0.000  0.000  0.000  0.000  1.000
 occupations, | n_(i1, i2)^(sigma1, sigma2) |:
  0.200  0.000  0.000  0.000  0.000  0.000  0.000  0.000  0.000  0.000
  0.000  0.200  0.000  0.000  0.000  0.000  0.000  0.000  0.000  0.000
  0.000  0.000  0.200  0.000  0.000  0.000  0.000  0.000  0.000  0.000
  0.000  0.000  0.000  0.200  0.000  0.000  0.000  0.000  0.000  0.000
  0.000  0.000  0.000  0.000  0.200  0.000  0.000  0.000  0.000  0.000
  0.000  0.000  0.000  0.000  0.000  1.000  0.000  0.000  0.000  0.000
  0.000  0.000  0.000  0.000  0.000  0.000  1.000  0.000  0.000  0.000
  0.000  0.000  0.000  0.000  0.000  0.000  0.000  1.000  0.000  0.000
  0.000  0.000  0.000  0.000  0.000  0.000  0.000  0.000  1.000  0.000
  0.000  0.000  0.000  0.000  0.000  0.000  0.000  0.000  0.000  1.000
atomic mx, my, mz =     0.000000    0.000000   -4.000000
atom    3   Tr[ns(na)] (up, down, total) =   1.00000  5.00000  6.00000
 eigenvalues: 
  0.200  0.200  0.200  0.200  0.200  1.000  1.000  1.000  1.000  1.000
 eigenvectors:
  1.000  0.000  0.000  0.000  0.000  0.000  0.000  0.000  0.000  0.000
  0.000  1.000  0.000  0.000  0.000  0.000  0.000  0.000  0.000  0.000
  0.000  0.000  1.000  0.000  0.000  0.000  0.000  0.000  0.000  0.000
  0.000  0.000  0.000  1.000  0.000  0.000  0.000  0.000  0.000  0.000
  0.000  0.000  0.000  0.000  1.000  0.000  0.000  0.000  0.000  0.000
  0.000  0.000  0.000  0.000  0.000  1.000  0.000  0.000  0.000  0.000
  0.000  0.000  0.000  0.000  0.000  0.000  1.000  0.000  0.000  0.000
  0.000  0.000  0.000  0.000  0.000  0.000  0.000  1.000  0.000  0.000
  0.000  0.000  0.000  0.000  0.000  0.000  0.000  0.000  1.000  0.000
  0.000  0.000  0.000  0.000  0.000  0.000  0.000  0.000  0.000  1.000
 occupations, | n_(i1, i2)^(sigma1, sigma2) |:
  0.200  0.000  0.000  0.000  0.000  0.000  0.000  0.000  0.000  0.000
  0.000  0.200  0.000  0.000  0.000  0.000  0.000  0.000  0.000  0.000
  0.000  0.000  0.200  0.000  0.000  0.000  0.000  0.000  0.000  0.000
  0.000  0.000  0.000  0.200  0.000  0.000  0.000  0.000  0.000  0.000
  0.000  0.000  0.000  0.000  0.200  0.000  0.000  0.000  0.000  0.000
  0.000  0.000  0.000  0.000  0.000  1.000  0.000  0.000  0.000  0.000
  0.000  0.000  0.000  0.000  0.000  0.000  1.000  0.000  0.000  0.000
  0.000  0.000  0.000  0.000  0.000  0.000  0.000  1.000  0.000  0.000
  0.000  0.000  0.000  0.000  0.000  0.000  0.000  0.000  1.000  0.000
  0.000  0.000  0.000  0.000  0.000  0.000  0.000  0.000  0.000  1.000
atomic mx, my, mz =     0.000000    0.000000   -4.000000
atom    4   Tr[ns(na)] (up, down, total) =   5.00000  1.00000  6.00000
 eigenvalues: 
  0.200  0.200  0.200  0.200  0.200  1.000  1.000  1.000  1.000  1.000
 eigenvectors:
  0.000  0.000  0.000  0.000  0.000  1.000  0.000  0.000  0.000  0.000
  0.000  0.000  0.000  0.000  0.000  0.000  1.000  0.000  0.000  0.000
  0.000  0.000  0.000  0.000  0.000  0.000  0.000  1.000  0.000  0.000
  0.000  0.000  0.000  0.000  0.000  0.000  0.000  0.000  1.000  0.000
  0.000  0.000  0.000  0.000  0.000  0.000  0.000  0.000  0.000  1.000
  1.000  0.000  0.000  0.000  0.000  0.000  0.000  0.000  0.000  0.000
  0.000  1.000  0.000  0.000  0.000  0.000  0.000  0.000  0.000  0.000
  0.000  0.000  1.000  0.000  0.000  0.000  0.000  0.000  0.000  0.000
  0.000  0.000  0.000  1.000  0.000  0.000  0.000  0.000  0.000  0.000
  0.000  0.000  0.000  0.000  1.000  0.000  0.000  0.000  0.000  0.000
 occupations, | n_(i1, i2)^(sigma1, sigma2) |:
  1.000  0.000  0.000  0.000  0.000  0.000  0.000  0.000  0.000  0.000
  0.000  1.000  0.000  0.000  0.000  0.000  0.000  0.000  0.000  0.000
  0.000  0.000  1.000  0.000  0.000  0.000  0.000  0.000  0.000  0.000
  0.000  0.000  0.000  1.000  0.000  0.000  0.000  0.000  0.000  0.000
  0.000  0.000  0.000  0.000  1.000  0.000  0.000  0.000  0.000  0.000
  0.000  0.000  0.000  0.000  0.000  0.200  0.000  0.000  0.000  0.000
  0.000  0.000  0.000  0.000  0.000  0.000  0.200  0.000  0.000  0.000
  0.000  0.000  0.000  0.000  0.000  0.000  0.000  0.200  0.000  0.000
  0.000  0.000  0.000  0.000  0.000  0.000  0.000  0.000  0.200  0.000
  0.000  0.000  0.000  0.000  0.000  0.000  0.000  0.000  0.000  0.200
atomic mx, my, mz =     0.000000    0.000000    4.000000
N of occupied +U levels =   24.000000
 --- exit write_ns ---

 ==============================================================================
     atom number    1 relative position :    0.5000  -0.5795   0.0000
     charge :    14.578278  (integrated on a sphere of radius 0.164)
     magnetization :          0.000000    0.000000    2.150721
     magnetization/charge:    0.000000    0.000000    0.147529
     polar coord.: r, theta, phi [deg] :     2.150721    0.000000  360.000000

 ==============================================================================

 ==============================================================================
     atom number    2 relative position :    0.0000   0.2925   0.0000
     charge :    14.578238  (integrated on a sphere of radius 0.164)
     magnetization :          0.000000    0.000000   -2.150713
     magnetization/charge:    0.000000    0.000000   -0.147529
     polar coord.: r, theta, phi [deg] :     2.150713  180.000000  360.000000

 ==============================================================================

 ==============================================================================
     atom number    3 relative position :    0.5000   0.5795   0.0000
     charge :    14.578278  (integrated on a sphere of radius 0.164)
     magnetization :          0.000000    0.000000   -2.150721
     magnetization/charge:    0.000000    0.000000   -0.147529
     polar coord.: r, theta, phi [deg] :     2.150721  180.000000  360.000000

 ==============================================================================

 ==============================================================================
     atom number    4 relative position :    0.0000  -0.2925   0.0000
     charge :    14.578238  (integrated on a sphere of radius 0.164)
     magnetization :          0.000000    0.000000    2.150713
     magnetization/charge:    0.000000    0.000000    0.147529
     polar coord.: r, theta, phi [deg] :     2.150713    0.000000  360.000000

 ==============================================================================

 ==============================================================================
     atom number    5 relative position :   -0.3479   0.8719   0.2243
     charge :     5.095785  (integrated on a sphere of radius 0.164)
     magnetization :          0.000000    0.000000    0.000000
     magnetization/charge:    0.000000    0.000000    0.000000
     polar coord.: r, theta, phi [deg] :     0.000000  360.000000  360.000000

 ==============================================================================

 ==============================================================================
     atom number    6 relative position :    0.1521   0.0000   0.2243
     charge :     5.095772  (integrated on a sphere of radius 0.164)
     magnetization :          0.000000    0.000000    0.000000
     magnetization/charge:    0.000000    0.000000    0.000000
     polar coord.: r, theta, phi [deg] :     0.000000  360.000000  360.000000

 ==============================================================================

 ==============================================================================
     atom number    7 relative position :    0.3479   0.8719  -0.2243
     charge :     5.095785  (integrated on a sphere of radius 0.164)
     magnetization :          0.000000    0.000000    0.000000
     magnetization/charge:    0.000000    0.000000    0.000000
     polar coord.: r, theta, phi [deg] :     0.000000  360.000000  360.000000

 ==============================================================================

 ==============================================================================
     atom number    8 relative position :   -0.1521   0.0000  -0.2243
     charge :     5.095772  (integrated on a sphere of radius 0.164)
     magnetization :          0.000000    0.000000    0.000000
     magnetization/charge:    0.000000    0.000000    0.000000
     polar coord.: r, theta, phi [deg] :     0.000000  360.000000  360.000000

 ==============================================================================

 ==============================================================================
     atom number    9 relative position :   -0.1730  -0.5723  -0.2241
     charge :     5.097216  (integrated on a sphere of radius 0.164)
     magnetization :          0.000000    0.000000    0.003361
     magnetization/charge:    0.000000    0.000000    0.000659
     polar coord.: r, theta, phi [deg] :     0.003361    0.000000  360.000000

 ==============================================================================

 ==============================================================================
     atom number   10 relative position :    0.3270   0.2996  -0.2241
     charge :     5.097203  (integrated on a sphere of radius 0.164)
     magnetization :          0.000000    0.000000   -0.003362
     magnetization/charge:    0.000000    0.000000   -0.000660
     polar coord.: r, theta, phi [deg] :     0.003362  180.000000  360.000000

 ==============================================================================

 ==============================================================================
     atom number   11 relative position :    0.1730  -0.5723   0.2241
     charge :     5.097216  (integrated on a sphere of radius 0.164)
     magnetization :          0.000000    0.000000    0.003361
     magnetization/charge:    0.000000    0.000000    0.000659
     polar coord.: r, theta, phi [deg] :     0.003361    0.000000  360.000000

 ==============================================================================

 ==============================================================================
     atom number   12 relative position :   -0.3270   0.2996   0.2241
     charge :     5.097203  (integrated on a sphere of radius 0.164)
     magnetization :          0.000000    0.000000   -0.003362
     magnetization/charge:    0.000000    0.000000   -0.000660
     polar coord.: r, theta, phi [deg] :     0.003362  180.000000  360.000000

 ==============================================================================

 ==============================================================================
     atom number   13 relative position :    0.1730   0.5723   0.2241
     charge :     5.097216  (integrated on a sphere of radius 0.164)
     magnetization :          0.000000    0.000000   -0.003361
     magnetization/charge:    0.000000    0.000000   -0.000659
     polar coord.: r, theta, phi [deg] :     0.003361  180.000000  360.000000

 ==============================================================================

 ==============================================================================
     atom number   14 relative position :   -0.3270  -0.2996   0.2241
     charge :     5.097203  (integrated on a sphere of radius 0.164)
     magnetization :          0.000000    0.000000    0.003362
     magnetization/charge:    0.000000    0.000000    0.000660
     polar coord.: r, theta, phi [deg] :     0.003362    0.000000  360.000000

 ==============================================================================

 ==============================================================================
     atom number   15 relative position :   -0.1730   0.5723  -0.2241
     charge :     5.097216  (integrated on a sphere of radius 0.164)
     magnetization :          0.000000    0.000000   -0.003361
     magnetization/charge:    0.000000    0.000000   -0.000659
     polar coord.: r, theta, phi [deg] :     0.003361  180.000000  360.000000

 ==============================================================================

 ==============================================================================
     atom number   16 relative position :    0.3270  -0.2996  -0.2241
     charge :     5.097203  (integrated on a sphere of radius 0.164)
     magnetization :          0.000000    0.000000    0.003362
     magnetization/charge:    0.000000    0.000000    0.000660
     polar coord.: r, theta, phi [deg] :     0.003362    0.000000  360.000000

 ==============================================================================
 Atomic wfc used for LDA+U Projector are NOT orthogonalized
     Starting wfcs are  288 randomized atomic wfcs

     total cpu time spent up to now is       21.0 secs

     per-process dynamical memory:   590.1 Mb

     Self-consistent Calculation

     iteration #  1     ecut=   300.00 Ry     beta= 0.30
     Davidson diagonalization with overlap

---- Real-time Memory Report at c_bands before calling an iterative solver
           716 MiB given to the printing process from OS
           580 MiB allocation reported by mallinfo(arena+hblkhd)
        212256 MiB available memory on the node where the printing process lives
------------------
     ethr =  1.00E-02,  avg # of iterations =  3.0
 --- enter write_ns ---
 LDA+U parameters:
U(  1) =   2.0000   J(  1) =   0.0000   B(  1) =   0.0000
U(  2) =   2.0000   J(  2) =   0.0000   B(  2) =   0.0000
atom    1   Tr[ns(na)] (up, down, total) =   1.28406  0.74934  2.03340
 eigenvalues: 
  0.136  0.137  0.141  0.163  0.172  0.178  0.203  0.297  0.298  0.310
 eigenvectors:
  0.000  0.000  0.000  0.000  0.000  0.001  0.000  0.210  0.650  0.138
  0.000  0.000  0.000  0.002  0.135  0.532  0.000  0.052  0.017  0.261
  0.000  0.000  0.001  0.001  0.000  0.001  0.580  0.278  0.128  0.012
  0.000  0.000  0.000  0.001  0.060  0.269  0.001  0.079  0.031  0.560
  0.000  0.000  0.000  0.000  0.000  0.000  0.418  0.380  0.174  0.028
  0.007  0.039  0.453  0.005  0.397  0.098  0.001  0.000  0.000  0.000
  0.001  0.505  0.356  0.001  0.111  0.025  0.000  0.000  0.000  0.000
  0.527  0.010  0.009  0.451  0.000  0.003  0.000  0.000  0.000  0.000
  0.016  0.443  0.177  0.000  0.295  0.068  0.000  0.000  0.000  0.000
  0.449  0.003  0.004  0.538  0.001  0.005  0.000  0.000  0.000  0.000
 occupations, | n_(i1, i2)^(sigma1, sigma2) |:
  0.299  0.000  0.001  0.005  0.001  0.000  0.002  0.002  0.000  0.001
  0.000  0.220  0.002  0.061  0.001  0.003  0.000  0.000  0.002  0.001
  0.001  0.002  0.242  0.001  0.047  0.002  0.000  0.000  0.001  0.001
  0.005  0.061  0.001  0.264  0.004  0.000  0.001  0.001  0.000  0.000
  0.001  0.001  0.047  0.004  0.258  0.001  0.001  0.001  0.000  0.000
  0.000  0.003  0.002  0.000  0.001  0.157  0.008  0.000  0.014  0.000
  0.002  0.000  0.000  0.001  0.001  0.008  0.143  0.000  0.009  0.000
  0.002  0.000  0.000  0.001  0.001  0.000  0.000  0.148  0.000  0.014
  0.000  0.002  0.001  0.000  0.000  0.014  0.009  0.000  0.151  0.001
  0.001  0.001  0.001  0.000  0.000  0.000  0.000  0.014  0.001  0.150
atomic mx, my, mz =     0.000168    0.000026    0.534720
atom    2   Tr[ns(na)] (up, down, total) =   0.75021  1.28457  2.03478
 eigenvalues: 
  0.135  0.137  0.142  0.163  0.171  0.177  0.203  0.297  0.299  0.309
 eigenvectors:
  0.003  0.042  0.449  0.000  0.423  0.083  0.000  0.000  0.000  0.000
  0.000  0.503  0.364  0.000  0.113  0.020  0.000  0.000  0.000  0.000
  0.542  0.004  0.005  0.444  0.002  0.002  0.000  0.000  0.000  0.000
  0.006  0.450  0.181  0.003  0.304  0.056  0.000  0.000  0.000  0.000
  0.448  0.001  0.000  0.545  0.002  0.002  0.000  0.000  0.000  0.000
  0.000  0.000  0.000  0.000  0.000  0.001  0.000  0.112  0.783  0.103
  0.000  0.000  0.000  0.004  0.109  0.556  0.000  0.040  0.020  0.271
  0.000  0.000  0.001  0.001  0.000  0.000  0.573  0.343  0.067  0.015
  0.000  0.000  0.000  0.002  0.048  0.280  0.000  0.060  0.031  0.579
  0.000  0.000  0.000  0.000  0.000  0.000  0.425  0.444  0.098  0.032
 occupations, | n_(i1, i2)^(sigma1, sigma2) |:
  0.157  0.007  0.000  0.014  0.001  0.000  0.003  0.002  0.000  0.001
  0.007  0.143  0.000  0.009  0.000  0.002  0.000  0.000  0.001  0.001
  0.000  0.000  0.148  0.000  0.014  0.002  0.000  0.000  0.001  0.001
  0.014  0.009  0.000  0.151  0.001  0.001  0.001  0.001  0.000  0.000
  0.001  0.000  0.014  0.001  0.151  0.000  0.001  0.001  0.000  0.000
  0.000  0.002  0.002  0.001  0.000  0.300  0.000  0.001  0.004  0.000
  0.003  0.000  0.000  0.001  0.001  0.000  0.220  0.001  0.062  0.001
  0.002  0.000  0.000  0.001  0.001  0.001  0.001  0.243  0.001  0.047
  0.000  0.001  0.001  0.000  0.000  0.004  0.062  0.001  0.264  0.004
  0.001  0.001  0.001  0.000  0.000  0.000  0.001  0.047  0.004  0.258
atomic mx, my, mz =    -0.000060    0.000048   -0.534364
atom    3   Tr[ns(na)] (up, down, total) =   0.75032  1.28462  2.03494
 eigenvalues: 
  0.135  0.137  0.141  0.163  0.172  0.178  0.203  0.297  0.299  0.310
 eigenvectors:
  0.009  0.040  0.436  0.014  0.385  0.116  0.000  0.000  0.000  0.000
  0.003  0.495  0.372  0.003  0.099  0.027  0.000  0.000  0.000  0.000
  0.512  0.029  0.011  0.442  0.001  0.004  0.000  0.000  0.000  0.000
  0.041  0.426  0.176  0.002  0.277  0.078  0.000  0.000  0.000  0.000
  0.435  0.010  0.004  0.535  0.007  0.008  0.000  0.000  0.000  0.000
  0.000  0.000  0.000  0.000  0.000  0.000  0.000  0.099  0.808  0.093
  0.000  0.000  0.000  0.002  0.159  0.511  0.001  0.039  0.016  0.272
  0.000  0.000  0.001  0.001  0.000  0.000  0.574  0.348  0.061  0.015
  0.000  0.000  0.000  0.001  0.071  0.255  0.000  0.059  0.027  0.586
  0.000  0.000  0.000  0.000  0.000  0.001  0.423  0.454  0.087  0.034
 occupations, | n_(i1, i2)^(sigma1, sigma2) |:
  0.158  0.007  0.000  0.014  0.001  0.000  0.003  0.002  0.000  0.001
  0.007  0.143  0.000  0.009  0.001  0.002  0.000  0.000  0.001  0.001
  0.000  0.000  0.148  0.000  0.014  0.002  0.000  0.000  0.001  0.001
  0.014  0.009  0.000  0.151  0.002  0.001  0.001  0.001  0.000  0.000
  0.001  0.001  0.014  0.002  0.151  0.000  0.001  0.001  0.000  0.000
  0.000  0.002  0.002  0.001  0.000  0.299  0.000  0.000  0.004  0.000
  0.003  0.000  0.000  0.001  0.001  0.000  0.219  0.001  0.062  0.001
  0.002  0.000  0.000  0.001  0.001  0.000  0.001  0.243  0.000  0.047
  0.000  0.001  0.001  0.000  0.000  0.004  0.062  0.000  0.265  0.005
  0.001  0.001  0.001  0.000  0.000  0.000  0.001  0.047  0.005  0.258
atomic mx, my, mz =    -0.000001   -0.000010   -0.534304
atom    4   Tr[ns(na)] (up, down, total) =   1.28398  0.74988  2.03385
 eigenvalues: 
  0.136  0.137  0.141  0.162  0.172  0.178  0.203  0.297  0.299  0.309
 eigenvectors:
  0.000  0.000  0.000  0.000  0.000  0.001  0.000  0.171  0.699  0.129
  0.000  0.000  0.000  0.003  0.167  0.499  0.002  0.053  0.017  0.259
  0.000  0.000  0.001  0.000  0.000  0.000  0.575  0.310  0.098  0.016
  0.000  0.000  0.000  0.001  0.076  0.253  0.000  0.081  0.029  0.559
  0.000  0.000  0.000  0.000  0.000  0.001  0.421  0.385  0.156  0.037
  0.005  0.041  0.444  0.002  0.380  0.127  0.000  0.000  0.000  0.000
  0.001  0.495  0.367  0.000  0.105  0.031  0.000  0.000  0.000  0.000
  0.533  0.006  0.008  0.451  0.000  0.002  0.000  0.000  0.000  0.000
  0.010  0.457  0.177  0.000  0.272  0.084  0.000  0.000  0.000  0.000
  0.451  0.001  0.003  0.541  0.000  0.003  0.000  0.000  0.000  0.000
 occupations, | n_(i1, i2)^(sigma1, sigma2) |:
  0.300  0.000  0.001  0.005  0.001  0.000  0.002  0.002  0.001  0.000
  0.000  0.219  0.001  0.061  0.001  0.003  0.000  0.000  0.001  0.001
  0.001  0.001  0.243  0.000  0.047  0.002  0.000  0.000  0.001  0.001
  0.005  0.061  0.000  0.264  0.005  0.000  0.001  0.001  0.000  0.000
  0.001  0.001  0.047  0.005  0.258  0.001  0.001  0.001  0.000  0.000
  0.000  0.003  0.002  0.000  0.001  0.158  0.008  0.000  0.014  0.000
  0.002  0.000  0.000  0.001  0.001  0.008  0.144  0.000  0.009  0.000
  0.002  0.000  0.000  0.001  0.001  0.000  0.000  0.148  0.000  0.013
  0.001  0.001  0.001  0.000  0.000  0.014  0.009  0.000  0.151  0.001
  0.000  0.001  0.001  0.000  0.000  0.000  0.000  0.013  0.001  0.150
atomic mx, my, mz =    -0.000157   -0.000093    0.534101
N of occupied +U levels =    8.136968
 --- exit write_ns ---
 Modify starting ns matrices according to input values 
 --- enter write_ns ---
 LDA+U parameters:
U(  1) =   2.0000   J(  1) =   0.0000   B(  1) =   0.0000
U(  2) =   2.0000   J(  2) =   0.0000   B(  2) =   0.0000
atom    1   Tr[ns(na)] (up, down, total) =   2.99894  2.00106  5.00000
 eigenvalues: 
 -0.000 -0.000 -0.000  0.000  0.000  1.000  1.000  1.000  1.000  1.000
 eigenvectors:
  0.021  0.000  0.006  0.022  0.602  0.016  0.018  0.217  0.055  0.042
  0.023  0.001  0.629  0.027  0.007  0.012  0.003  0.022  0.098  0.179
  0.007  0.000  0.004  0.004  0.113  0.021  0.547  0.126  0.129  0.049
  0.017  0.001  0.291  0.004  0.047  0.017  0.011  0.057  0.195  0.359
  0.005  0.000  0.003  0.006  0.161  0.049  0.339  0.327  0.106  0.005
  0.137  0.012  0.031  0.323  0.003  0.354  0.001  0.004  0.122  0.013
  0.029  0.003  0.007  0.098  0.001  0.411  0.054  0.151  0.052  0.193
  0.723  0.000  0.005  0.194  0.059  0.005  0.001  0.002  0.006  0.004
  0.036  0.002  0.019  0.316  0.007  0.113  0.026  0.092  0.236  0.153
  0.002  0.981  0.004  0.006  0.000  0.002  0.001  0.000  0.003  0.001
 occupations, | n_(i1, i2)^(sigma1, sigma2) |:
  0.349  0.089  0.287  0.154  0.336  0.011  0.003  0.002  0.001  0.005
  0.089  0.314  0.065  0.447  0.060  0.000  0.005  0.003  0.007  0.003
  0.287  0.065  0.871  0.050  0.149  0.007  0.007  0.020  0.009  0.017
  0.154  0.447  0.050  0.639  0.070  0.011  0.001  0.001  0.001  0.004
  0.336  0.060  0.149  0.070  0.826  0.000  0.004  0.010  0.006  0.010
  0.011  0.000  0.007  0.011  0.000  0.493  0.262  0.081  0.415  0.050
  0.003  0.005  0.007  0.001  0.004  0.262  0.862  0.021  0.222  0.024
  0.002  0.003  0.020  0.001  0.010  0.081  0.021  0.019  0.103  0.010
  0.001  0.007  0.009  0.001  0.006  0.415  0.222  0.103  0.620  0.059
  0.005  0.003  0.017  0.004  0.010  0.050  0.024  0.010  0.059  0.007
atomic mx, my, mz =    -0.029825    0.002785    0.997879
atom    2   Tr[ns(na)] (up, down, total) =   2.84368  2.15632  5.00000
 eigenvalues: 
 -0.000 -0.000  0.000  0.000  0.000  1.000  1.000  1.000  1.000  1.000
 eigenvectors:
  0.001  0.021  0.001  0.026  0.037  0.036  0.107  0.007  0.501  0.262
  0.000  0.006  0.000  0.009  0.005  0.028  0.659  0.056  0.043  0.193
  0.005  0.446  0.113  0.017  0.407  0.001  0.000  0.000  0.006  0.005
  0.000  0.028  0.002  0.023  0.011  0.000  0.123  0.006  0.416  0.389
  0.000  0.022  0.859  0.006  0.110  0.000  0.001  0.000  0.002  0.001
  0.266  0.174  0.007  0.358  0.082  0.028  0.006  0.076  0.001  0.001
  0.190  0.281  0.017  0.046  0.317  0.018  0.002  0.033  0.010  0.087
  0.075  0.003  0.001  0.003  0.002  0.839  0.021  0.027  0.012  0.018
  0.341  0.015  0.001  0.509  0.026  0.007  0.006  0.043  0.008  0.044
  0.121  0.002  0.000  0.003  0.005  0.041  0.075  0.752  0.000  0.001
 occupations, | n_(i1, i2)^(sigma1, sigma2) |:
  0.914  0.041  0.036  0.064  0.041  0.011  0.220  0.004  0.147  0.006
  0.041  0.979  0.022  0.034  0.016  0.010  0.100  0.003  0.081  0.004
  0.036  0.022  0.012  0.097  0.003  0.001  0.013  0.018  0.009  0.012
  0.064  0.034  0.097  0.935  0.035  0.000  0.177  0.004  0.118  0.008
  0.041  0.016  0.003  0.035  0.004  0.001  0.014  0.018  0.010  0.011
  0.011  0.010  0.001  0.000  0.001  0.113  0.067  0.194  0.082  0.225
  0.220  0.100  0.013  0.177  0.014  0.067  0.150  0.107  0.023  0.144
  0.004  0.003  0.018  0.004  0.018  0.194  0.107  0.917  0.127  0.103
  0.147  0.081  0.009  0.118  0.010  0.082  0.023  0.127  0.108  0.176
  0.006  0.004  0.012  0.008  0.011  0.225  0.144  0.103  0.176  0.869
atomic mx, my, mz =    -0.000415   -0.002544    0.687358
atom    3   Tr[ns(na)] (up, down, total) =   2.77073  2.22927  5.00000
 eigenvalues: 
 -0.000  0.000  0.000  0.000  0.000  1.000  1.000  1.000  1.000  1.000
 eigenvectors:
  0.024  0.043  0.011  0.051  0.011  0.751  0.040  0.058  0.000  0.013
  0.004  0.013  0.002  0.012  0.003  0.021  0.532  0.317  0.000  0.097
  0.051  0.432  0.262  0.196  0.016  0.014  0.018  0.007  0.000  0.002
  0.004  0.018  0.001  0.083  0.014  0.033  0.374  0.272  0.000  0.200
  0.011  0.261  0.680  0.023  0.004  0.001  0.010  0.005  0.000  0.006
  0.464  0.053  0.008  0.009  0.367  0.001  0.001  0.015  0.050  0.032
  0.326  0.016  0.014  0.129  0.316  0.118  0.005  0.018  0.026  0.032
  0.001  0.000  0.002  0.008  0.066  0.010  0.021  0.286  0.010  0.596
  0.115  0.165  0.019  0.477  0.093  0.051  0.000  0.020  0.035  0.024
  0.000  0.000  0.000  0.011  0.111  0.000  0.000  0.000  0.878  0.000
 occupations, | n_(i1, i2)^(sigma1, sigma2) |:
  0.861  0.068  0.127  0.080  0.009  0.014  0.252  0.004  0.170  0.007
  0.068  0.967  0.066  0.037  0.010  0.008  0.115  0.003  0.091  0.004
  0.127  0.066  0.042  0.136  0.020  0.000  0.016  0.021  0.011  0.012
  0.080  0.037  0.136  0.879  0.136  0.000  0.205  0.004  0.137  0.010
  0.009  0.010  0.020  0.136  0.022  0.001  0.033  0.017  0.021  0.012
  0.014  0.008  0.000  0.000  0.001  0.099  0.061  0.187  0.077  0.211
  0.252  0.115  0.016  0.205  0.033  0.061  0.199  0.097  0.058  0.151
  0.004  0.003  0.021  0.004  0.017  0.187  0.097  0.923  0.130  0.095
  0.170  0.091  0.011  0.137  0.021  0.077  0.058  0.130  0.131  0.175
  0.007  0.004  0.012  0.010  0.012  0.211  0.151  0.095  0.175  0.878
atomic mx, my, mz =    -0.000514   -0.006309    0.541457
atom    4   Tr[ns(na)] (up, down, total) =   2.99902  2.00098  5.00000
 eigenvalues: 
 -0.000 -0.000 -0.000  0.000  0.000  1.000  1.000  1.000  1.000  1.000
 eigenvectors:
  0.096  0.146  0.439  0.011  0.008  0.004  0.114  0.011  0.011  0.159
  0.023  0.008  0.009  0.623  0.024  0.026  0.179  0.023  0.069  0.018
  0.017  0.018  0.059  0.002  0.002  0.062  0.008  0.105  0.055  0.670
  0.000  0.003  0.035  0.309  0.011  0.056  0.407  0.032  0.116  0.030
  0.021  0.035  0.098  0.002  0.003  0.015  0.195  0.348  0.201  0.083
  0.077  0.083  0.123  0.018  0.214  0.166  0.005  0.073  0.228  0.014
  0.031  0.017  0.029  0.006  0.055  0.650  0.055  0.119  0.024  0.014
  0.334  0.018  0.085  0.009  0.539  0.001  0.000  0.007  0.007  0.000
  0.097  0.065  0.096  0.016  0.092  0.019  0.036  0.281  0.286  0.012
  0.305  0.607  0.027  0.005  0.052  0.000  0.000  0.001  0.003  0.000
 occupations, | n_(i1, i2)^(sigma1, sigma2) |:
  0.300  0.092  0.261  0.156  0.330  0.010  0.004  0.001  0.001  0.004
  0.092  0.314  0.037  0.447  0.076  0.002  0.006  0.002  0.008  0.004
  0.261  0.037  0.901  0.057  0.123  0.006  0.007  0.019  0.007  0.018
  0.156  0.447  0.057  0.641  0.052  0.011  0.002  0.002  0.000  0.004
  0.330  0.076  0.123  0.052  0.843  0.003  0.006  0.011  0.007  0.010
  0.010  0.002  0.006  0.011  0.003  0.486  0.262  0.075  0.417  0.039
  0.004  0.006  0.007  0.002  0.006  0.262  0.862  0.021  0.221  0.025
  0.001  0.002  0.019  0.002  0.011  0.075  0.021  0.015  0.088  0.007
  0.001  0.008  0.007  0.000  0.007  0.417  0.221  0.088  0.634  0.041
  0.004  0.004  0.018  0.004  0.010  0.039  0.025  0.007  0.041  0.004
atomic mx, my, mz =    -0.028575   -0.000272    0.998048
N of occupied +U levels =   20.000000
 --- exit write_ns ---
 --- in v_hubbard ---
Hub. E (dc, noflip, flip, total)    5.8799   5.9262  -0.0463   0.0000
 -------

     total cpu time spent up to now is       67.4 secs

     total energy              =   -1098.96568749 Ry
     estimated scf accuracy    <      78.67301700 Ry

     total magnetization       =    -0.00    -0.00     0.00 Bohr mag/cell
     absolute magnetization    =     3.15 Bohr mag/cell

     iteration #  2     ecut=   300.00 Ry     beta= 0.30
     Davidson diagonalization with overlap

---- Real-time Memory Report at c_bands before calling an iterative solver
           771 MiB given to the printing process from OS
           643 MiB allocation reported by mallinfo(arena+hblkhd)
        210109 MiB available memory on the node where the printing process lives
------------------
     ethr =  1.00E-02,  avg # of iterations =  7.4
 --- enter write_ns ---
 LDA+U parameters:
U(  1) =   2.0000   J(  1) =   0.0000   B(  1) =   0.0000
U(  2) =   2.0000   J(  2) =   0.0000   B(  2) =   0.0000
atom    1   Tr[ns(na)] (up, down, total) =   4.46204  3.96429  8.42633
 eigenvalues: 
  0.621  0.724  0.749  0.801  0.834  0.861  0.939  0.952  0.973  0.974
 eigenvectors:
  0.001  0.000  0.001  0.000  0.002  0.002  0.006  0.792  0.035  0.162
  0.000  0.653  0.012  0.027  0.000  0.000  0.001  0.002  0.279  0.026
  0.000  0.001  0.000  0.004  0.639  0.050  0.000  0.039  0.015  0.251
  0.000  0.289  0.002  0.015  0.002  0.000  0.000  0.006  0.634  0.051
  0.000  0.000  0.000  0.001  0.280  0.019  0.008  0.149  0.035  0.509
  0.002  0.017  0.010  0.535  0.004  0.003  0.424  0.004  0.001  0.001
  0.001  0.034  0.698  0.143  0.000  0.005  0.116  0.002  0.001  0.000
  0.753  0.000  0.002  0.005  0.015  0.222  0.000  0.002  0.000  0.000
  0.009  0.003  0.273  0.255  0.001  0.034  0.421  0.004  0.000  0.000
  0.233  0.003  0.003  0.016  0.057  0.664  0.024  0.000  0.000  0.000
 occupations, | n_(i1, i2)^(sigma1, sigma2) |:
  0.955  0.001  0.010  0.003  0.004  0.001  0.006  0.009  0.002  0.002
  0.001  0.803  0.006  0.113  0.002  0.009  0.006  0.001  0.009  0.006
  0.010  0.006  0.877  0.001  0.061  0.006  0.001  0.002  0.003  0.006
  0.003  0.113  0.001  0.897  0.003  0.003  0.008  0.005  0.003  0.000
  0.004  0.002  0.061  0.003  0.929  0.000  0.003  0.006  0.001  0.002
  0.001  0.009  0.006  0.003  0.000  0.858  0.029  0.008  0.061  0.020
  0.006  0.006  0.001  0.008  0.003  0.029  0.778  0.006  0.054  0.007
  0.009  0.001  0.002  0.005  0.006  0.008  0.006  0.679  0.021  0.099
  0.002  0.009  0.003  0.003  0.001  0.061  0.054  0.021  0.845  0.012
  0.002  0.006  0.006  0.000  0.002  0.020  0.007  0.099  0.012  0.803
atomic mx, my, mz =     0.005749   -0.005381    0.497751
atom    2   Tr[ns(na)] (up, down, total) =   4.04430  4.44614  8.49045
 eigenvalues: 
  0.617  0.735  0.746  0.826  0.839  0.913  0.937  0.947  0.957  0.974
 eigenvectors:
  0.000  0.027  0.001  0.014  0.018  0.921  0.002  0.015  0.001  0.001
  0.001  0.019  0.719  0.007  0.003  0.003  0.006  0.237  0.005  0.001
  0.741  0.006  0.009  0.140  0.090  0.008  0.001  0.004  0.001  0.000
  0.006  0.007  0.256  0.006  0.001  0.005  0.033  0.664  0.022  0.000
  0.251  0.009  0.005  0.450  0.258  0.023  0.001  0.003  0.000  0.000
  0.001  0.000  0.000  0.000  0.001  0.003  0.674  0.008  0.213  0.100
  0.000  0.646  0.005  0.007  0.004  0.030  0.068  0.048  0.169  0.022
  0.000  0.002  0.000  0.247  0.421  0.002  0.010  0.001  0.029  0.289
  0.000  0.283  0.004  0.011  0.000  0.003  0.191  0.019  0.457  0.031
  0.000  0.000  0.001  0.118  0.205  0.003  0.014  0.002  0.103  0.555
 occupations, | n_(i1, i2)^(sigma1, sigma2) |:
  0.906  0.003  0.009  0.008  0.012  0.002  0.021  0.006  0.017  0.001
  0.003  0.797  0.009  0.085  0.003  0.005  0.014  0.001  0.006  0.004
  0.009  0.009  0.673  0.016  0.092  0.009  0.003  0.002  0.005  0.006
  0.008  0.085  0.016  0.891  0.016  0.001  0.017  0.002  0.014  0.000
  0.012  0.003  0.092  0.016  0.778  0.002  0.011  0.006  0.003  0.000
  0.002  0.005  0.009  0.001  0.002  0.945  0.007  0.005  0.007  0.005
  0.021  0.014  0.003  0.017  0.011  0.007  0.808  0.009  0.095  0.003
  0.006  0.001  0.002  0.002  0.006  0.005  0.009  0.879  0.002  0.063
  0.017  0.006  0.005  0.014  0.003  0.007  0.095  0.002  0.888  0.005
  0.001  0.004  0.006  0.000  0.000  0.005  0.003  0.063  0.005  0.926
atomic mx, my, mz =     0.006608    0.000342   -0.401840
atom    3   Tr[ns(na)] (up, down, total) =   4.04658  4.45798  8.50456
 eigenvalues: 
  0.619  0.740  0.746  0.826  0.844  0.913  0.938  0.946  0.958  0.974
 eigenvectors:
  0.001  0.049  0.001  0.021  0.020  0.885  0.000  0.020  0.001  0.001
  0.005  0.062  0.671  0.006  0.010  0.001  0.011  0.229  0.005  0.000
  0.727  0.003  0.027  0.080  0.141  0.019  0.000  0.001  0.001  0.000
  0.025  0.018  0.255  0.000  0.007  0.006  0.056  0.616  0.017  0.000
  0.240  0.009  0.001  0.268  0.413  0.041  0.004  0.023  0.001  0.000
  0.001  0.000  0.000  0.000  0.001  0.000  0.695  0.027  0.203  0.072
  0.001  0.597  0.028  0.009  0.019  0.043  0.051  0.060  0.148  0.044
  0.000  0.001  0.000  0.412  0.263  0.001  0.002  0.000  0.045  0.276
  0.000  0.260  0.015  0.009  0.003  0.003  0.178  0.019  0.443  0.071
  0.000  0.001  0.000  0.196  0.123  0.001  0.003  0.004  0.137  0.535
 occupations, | n_(i1, i2)^(sigma1, sigma2) |:
  0.902  0.009  0.017  0.009  0.013  0.002  0.026  0.007  0.021  0.001
  0.009  0.795  0.001  0.084  0.003  0.006  0.016  0.001  0.007  0.004
  0.017  0.001  0.678  0.023  0.092  0.008  0.002  0.002  0.005  0.006
  0.009  0.084  0.023  0.882  0.033  0.001  0.022  0.002  0.018  0.001
  0.013  0.003  0.092  0.033  0.790  0.001  0.005  0.008  0.002  0.002
  0.002  0.006  0.008  0.001  0.001  0.945  0.006  0.004  0.008  0.003
  0.026  0.016  0.002  0.022  0.005  0.006  0.815  0.008  0.091  0.006
  0.007  0.001  0.002  0.002  0.008  0.004  0.008  0.878  0.003  0.064
  0.021  0.007  0.005  0.018  0.002  0.008  0.091  0.003  0.894  0.003
  0.001  0.004  0.006  0.001  0.002  0.003  0.006  0.064  0.003  0.926
atomic mx, my, mz =     0.001848   -0.003308   -0.411395
atom    4   Tr[ns(na)] (up, down, total) =   4.46194  3.95407  8.41601
 eigenvalues: 
  0.617  0.728  0.750  0.777  0.834  0.877  0.935  0.951  0.973  0.974
 eigenvectors:
  0.001  0.000  0.001  0.000  0.000  0.001  0.011  0.824  0.116  0.047
  0.000  0.652  0.018  0.015  0.000  0.004  0.001  0.003  0.092  0.214
  0.000  0.000  0.000  0.008  0.659  0.019  0.000  0.041  0.200  0.073
  0.000  0.292  0.006  0.009  0.000  0.002  0.001  0.007  0.180  0.502
  0.000  0.001  0.000  0.001  0.302  0.005  0.008  0.108  0.411  0.162
  0.000  0.018  0.002  0.438  0.009  0.158  0.366  0.006  0.002  0.001
  0.001  0.033  0.750  0.046  0.004  0.013  0.149  0.003  0.000  0.001
  0.736  0.000  0.001  0.080  0.001  0.177  0.002  0.002  0.000  0.000
  0.011  0.002  0.219  0.239  0.017  0.051  0.456  0.005  0.000  0.000
  0.251  0.000  0.003  0.162  0.007  0.570  0.006  0.000  0.000  0.000
 occupations, | n_(i1, i2)^(sigma1, sigma2) |:
  0.954  0.002  0.006  0.003  0.005  0.000  0.005  0.008  0.001  0.001
  0.002  0.806  0.003  0.112  0.005  0.009  0.004  0.001  0.006  0.005
  0.006  0.003  0.877  0.002  0.062  0.006  0.001  0.002  0.003  0.008
  0.003  0.112  0.002  0.898  0.005  0.002  0.006  0.005  0.002  0.001
  0.005  0.005  0.062  0.005  0.927  0.000  0.004  0.006  0.001  0.001
  0.000  0.009  0.006  0.002  0.000  0.852  0.035  0.023  0.056  0.023
  0.005  0.004  0.001  0.006  0.004  0.035  0.781  0.001  0.056  0.015
  0.008  0.001  0.002  0.005  0.006  0.023  0.001  0.678  0.011  0.100
  0.001  0.006  0.003  0.002  0.001  0.056  0.056  0.011  0.848  0.033
  0.001  0.005  0.008  0.001  0.001  0.023  0.015  0.100  0.033  0.795
atomic mx, my, mz =     0.002796   -0.002690    0.507870
N of occupied +U levels =   33.837351
 --- exit write_ns ---
 --- in v_hubbard ---
Hub. E (dc, noflip, flip, total)    7.9894   8.2619  -0.0304   0.2420
 -------

     total cpu time spent up to now is      141.9 secs

     total energy              =   -1114.55596011 Ry
     estimated scf accuracy    <      17.24603717 Ry

     total magnetization       =     0.03     0.01     0.28 Bohr mag/cell
     absolute magnetization    =     3.43 Bohr mag/cell

     iteration #  3     ecut=   300.00 Ry     beta= 0.30
     Davidson diagonalization with overlap

---- Real-time Memory Report at c_bands before calling an iterative solver
           832 MiB given to the printing process from OS
           649 MiB allocation reported by mallinfo(arena+hblkhd)
        209700 MiB available memory on the node where the printing process lives
------------------
     ethr =  1.00E-02,  avg # of iterations =  2.0
 --- enter write_ns ---
 LDA+U parameters:
U(  1) =   2.0000   J(  1) =   0.0000   B(  1) =   0.0000
U(  2) =   2.0000   J(  2) =   0.0000   B(  2) =   0.0000
atom    1   Tr[ns(na)] (up, down, total) =   3.93317  3.00773  6.94090
 eigenvalues: 
  0.442  0.480  0.533  0.562  0.573  0.596  0.924  0.928  0.950  0.952
 eigenvectors:
  0.000  0.000  0.000  0.000  0.001  0.003  0.066  0.611  0.287  0.030
  0.000  0.023  0.600  0.038  0.004  0.012  0.001  0.000  0.028  0.294
  0.003  0.000  0.027  0.493  0.004  0.176  0.003  0.074  0.186  0.034
  0.000  0.005  0.284  0.030  0.002  0.003  0.000  0.001  0.081  0.594
  0.000  0.000  0.005  0.222  0.004  0.062  0.036  0.208  0.417  0.046
  0.062  0.406  0.009  0.003  0.047  0.011  0.413  0.047  0.000  0.002
  0.005  0.005  0.004  0.010  0.827  0.002  0.128  0.018  0.001  0.000
  0.173  0.119  0.063  0.132  0.008  0.500  0.001  0.003  0.000  0.000
  0.125  0.357  0.002  0.025  0.100  0.007  0.346  0.037  0.000  0.000
  0.631  0.085  0.005  0.047  0.001  0.223  0.006  0.000  0.000  0.000
 occupations, | n_(i1, i2)^(sigma1, sigma2) |:
  0.934  0.003  0.018  0.002  0.001  0.004  0.010  0.014  0.000  0.003
  0.003  0.669  0.014  0.195  0.004  0.007  0.002  0.001  0.014  0.009
  0.018  0.014  0.681  0.005  0.169  0.015  0.000  0.005  0.007  0.013
  0.002  0.195  0.005  0.817  0.011  0.005  0.003  0.008  0.001  0.001
  0.001  0.004  0.169  0.011  0.833  0.003  0.008  0.012  0.006  0.006
  0.004  0.007  0.015  0.005  0.003  0.689  0.097  0.020  0.194  0.012
  0.010  0.002  0.000  0.003  0.008  0.097  0.623  0.008  0.076  0.015
  0.014  0.001  0.005  0.008  0.012  0.020  0.008  0.549  0.009  0.058
  0.000  0.014  0.007  0.001  0.006  0.194  0.076  0.009  0.658  0.039
  0.003  0.009  0.013  0.001  0.006  0.012  0.015  0.058  0.039  0.489
atomic mx, my, mz =    -0.001640    0.003851    0.925447
atom    2   Tr[ns(na)] (up, down, total) =   3.13691  3.87247  7.00939
 eigenvalues: 
  0.314  0.478  0.524  0.556  0.569  0.865  0.888  0.933  0.934  0.949
 eigenvectors:
  0.000  0.001  0.015  0.001  0.003  0.915  0.014  0.041  0.009  0.001
  0.001  0.000  0.000  0.694  0.006  0.019  0.001  0.231  0.048  0.000
  0.147  0.840  0.001  0.002  0.003  0.000  0.001  0.003  0.003  0.000
  0.000  0.005  0.021  0.288  0.002  0.021  0.008  0.530  0.125  0.000
  0.849  0.149  0.000  0.001  0.000  0.000  0.001  0.001  0.000  0.000
  0.002  0.001  0.000  0.001  0.001  0.008  0.689  0.020  0.150  0.128
  0.000  0.001  0.637  0.006  0.004  0.035  0.079  0.056  0.127  0.054
  0.001  0.001  0.001  0.006  0.692  0.000  0.005  0.006  0.047  0.241
  0.000  0.001  0.321  0.001  0.001  0.000  0.192  0.069  0.334  0.082
  0.001  0.001  0.003  0.002  0.287  0.001  0.010  0.043  0.157  0.494
 occupations, | n_(i1, i2)^(sigma1, sigma2) |:
  0.862  0.002  0.012  0.021  0.006  0.002  0.031  0.014  0.027  0.006
  0.002  0.667  0.014  0.168  0.010  0.009  0.023  0.002  0.010  0.007
  0.012  0.014  0.457  0.025  0.058  0.023  0.001  0.001  0.008  0.011
  0.021  0.168  0.025  0.811  0.012  0.005  0.031  0.009  0.026  0.004
  0.006  0.010  0.058  0.012  0.340  0.018  0.006  0.006  0.003  0.005
  0.002  0.009  0.023  0.005  0.018  0.901  0.014  0.014  0.018  0.003
  0.031  0.023  0.001  0.031  0.006  0.014  0.663  0.015  0.181  0.005
  0.014  0.002  0.001  0.009  0.006  0.014  0.015  0.681  0.012  0.171
  0.027  0.010  0.008  0.026  0.003  0.018  0.181  0.012  0.794  0.015
  0.006  0.007  0.011  0.004  0.005  0.003  0.005  0.171  0.015  0.833
atomic mx, my, mz =    -0.014541   -0.001319   -0.735560
atom    3   Tr[ns(na)] (up, down, total) =   3.09193  3.86171  6.95364
 eigenvalues: 
  0.290  0.476  0.514  0.554  0.568  0.854  0.884  0.932  0.934  0.949
 eigenvectors:
  0.006  0.005  0.022  0.000  0.002  0.886  0.013  0.046  0.018  0.001
  0.002  0.002  0.000  0.696  0.002  0.019  0.000  0.154  0.125  0.000
  0.163  0.812  0.005  0.006  0.003  0.006  0.002  0.000  0.002  0.000
  0.012  0.009  0.031  0.285  0.000  0.028  0.006  0.329  0.301  0.000
  0.813  0.164  0.001  0.003  0.000  0.004  0.002  0.007  0.006  0.000
  0.002  0.001  0.000  0.001  0.001  0.007  0.715  0.060  0.109  0.104
  0.000  0.002  0.617  0.007  0.005  0.049  0.074  0.129  0.058  0.059
  0.000  0.001  0.001  0.001  0.697  0.000  0.003  0.017  0.036  0.244
  0.000  0.002  0.320  0.001  0.000  0.000  0.180  0.157  0.251  0.089
  0.000  0.001  0.004  0.000  0.289  0.001  0.006  0.102  0.095  0.502
 occupations, | n_(i1, i2)^(sigma1, sigma2) |:
  0.846  0.012  0.039  0.027  0.024  0.001  0.037  0.013  0.034  0.005
  0.012  0.664  0.005  0.165  0.036  0.010  0.028  0.002  0.013  0.009
  0.039  0.005  0.451  0.002  0.067  0.024  0.003  0.001  0.006  0.010
  0.027  0.165  0.002  0.798  0.068  0.002  0.038  0.010  0.033  0.004
  0.024  0.036  0.067  0.068  0.333  0.019  0.004  0.006  0.007  0.004
  0.001  0.010  0.024  0.002  0.019  0.897  0.013  0.013  0.019  0.002
  0.037  0.028  0.003  0.038  0.004  0.013  0.662  0.014  0.184  0.007
  0.013  0.002  0.001  0.010  0.006  0.013  0.014  0.681  0.011  0.171
  0.034  0.013  0.006  0.033  0.007  0.019  0.184  0.011  0.790  0.014
  0.005  0.009  0.010  0.004  0.004  0.002  0.007  0.171  0.014  0.832
atomic mx, my, mz =    -0.016290   -0.003930   -0.769772
atom    4   Tr[ns(na)] (up, down, total) =   3.93890  3.07382  7.01272
 eigenvalues: 
  0.457  0.489  0.533  0.567  0.580  0.630  0.923  0.930  0.951  0.953
 eigenvectors:
  0.000  0.000  0.000  0.000  0.001  0.001  0.140  0.584  0.264  0.010
  0.000  0.022  0.634  0.001  0.010  0.008  0.001  0.001  0.023  0.298
  0.002  0.004  0.007  0.531  0.082  0.067  0.007  0.068  0.204  0.028
  0.000  0.005  0.307  0.004  0.006  0.003  0.001  0.003  0.058  0.614
  0.000  0.002  0.000  0.234  0.046  0.022  0.050  0.150  0.448  0.048
  0.022  0.432  0.006  0.001  0.082  0.030  0.344  0.081  0.001  0.002
  0.001  0.000  0.012  0.082  0.715  0.021  0.132  0.036  0.001  0.000
  0.310  0.095  0.020  0.062  0.005  0.503  0.001  0.004  0.000  0.000
  0.046  0.430  0.011  0.056  0.052  0.008  0.322  0.074  0.000  0.000
  0.617  0.009  0.002  0.029  0.002  0.337  0.002  0.000  0.000  0.000
 occupations, | n_(i1, i2)^(sigma1, sigma2) |:
  0.934  0.002  0.012  0.002  0.004  0.003  0.009  0.012  0.001  0.001
  0.002  0.669  0.011  0.195  0.006  0.010  0.004  0.001  0.010  0.009
  0.012  0.011  0.688  0.004  0.170  0.016  0.002  0.007  0.007  0.015
  0.002  0.195  0.004  0.817  0.011  0.004  0.006  0.007  0.003  0.000
  0.004  0.006  0.170  0.011  0.831  0.004  0.008  0.012  0.005  0.006
  0.003  0.010  0.016  0.004  0.004  0.687  0.091  0.028  0.184  0.010
  0.009  0.004  0.002  0.006  0.008  0.091  0.637  0.006  0.090  0.014
  0.012  0.001  0.007  0.007  0.012  0.028  0.006  0.558  0.005  0.075
  0.001  0.010  0.007  0.003  0.005  0.184  0.090  0.005  0.671  0.029
  0.001  0.009  0.015  0.000  0.006  0.010  0.014  0.075  0.029  0.521
atomic mx, my, mz =     0.006223    0.004045    0.865077
N of occupied +U levels =   27.916647
 --- exit write_ns ---
 --- in v_hubbard ---
Hub. E (dc, noflip, flip, total)   10.1636  10.6575  -0.0105   0.4834
 -------

     total cpu time spent up to now is      170.0 secs

     total energy              =   -1116.30014334 Ry
     estimated scf accuracy    <       1.88576266 Ry

     total magnetization       =    -0.02    -0.01     0.24 Bohr mag/cell
     absolute magnetization    =     4.11 Bohr mag/cell

     iteration #  4     ecut=   300.00 Ry     beta= 0.30
     Davidson diagonalization with overlap

---- Real-time Memory Report at c_bands before calling an iterative solver
           839 MiB given to the printing process from OS
           655 MiB allocation reported by mallinfo(arena+hblkhd)
        209693 MiB available memory on the node where the printing process lives
------------------
     ethr =  1.27E-03,  avg # of iterations =  5.4
 --- enter write_ns ---
 LDA+U parameters:
U(  1) =   2.0000   J(  1) =   0.0000   B(  1) =   0.0000
U(  2) =   2.0000   J(  2) =   0.0000   B(  2) =   0.0000
atom    1   Tr[ns(na)] (up, down, total) =   3.88296  3.20314  7.08610
 eigenvalues: 
  0.418  0.489  0.497  0.516  0.616  0.749  0.934  0.948  0.958  0.960
 eigenvectors:
  0.000  0.001  0.000  0.000  0.002  0.001  0.010  0.785  0.035  0.166
  0.000  0.155  0.501  0.005  0.006  0.003  0.001  0.016  0.163  0.149
  0.001  0.000  0.017  0.672  0.005  0.006  0.000  0.037  0.173  0.088
  0.000  0.061  0.250  0.009  0.007  0.002  0.000  0.028  0.284  0.358
  0.000  0.001  0.004  0.284  0.005  0.001  0.008  0.119  0.341  0.238
  0.001  0.054  0.001  0.007  0.484  0.042  0.405  0.003  0.003  0.000
  0.000  0.327  0.145  0.010  0.334  0.002  0.176  0.005  0.000  0.001
  0.527  0.013  0.007  0.005  0.032  0.414  0.000  0.002  0.000  0.000
  0.022  0.386  0.072  0.004  0.113  0.006  0.391  0.005  0.000  0.000
  0.449  0.002  0.002  0.004  0.012  0.523  0.009  0.000  0.000  0.000
 occupations, | n_(i1, i2)^(sigma1, sigma2) |:
  0.949  0.006  0.011  0.008  0.003  0.004  0.014  0.013  0.003  0.003
  0.006  0.649  0.015  0.215  0.004  0.013  0.005  0.004  0.015  0.012
  0.011  0.015  0.650  0.006  0.199  0.019  0.002  0.008  0.010  0.019
  0.008  0.215  0.006  0.808  0.013  0.000  0.008  0.011  0.001  0.002
  0.003  0.004  0.199  0.013  0.828  0.007  0.009  0.013  0.006  0.006
  0.004  0.013  0.019  0.000  0.007  0.745  0.068  0.021  0.146  0.005
  0.014  0.005  0.002  0.008  0.009  0.068  0.615  0.009  0.144  0.017
  0.013  0.004  0.008  0.011  0.013  0.021  0.009  0.564  0.007  0.158
  0.003  0.015  0.010  0.001  0.006  0.146  0.144  0.007  0.681  0.043
  0.003  0.012  0.019  0.002  0.006  0.005  0.017  0.158  0.043  0.599
atomic mx, my, mz =    -0.000043   -0.000109    0.679822
atom    2   Tr[ns(na)] (up, down, total) =   2.89249  3.76303  6.65552
 eigenvalues: 
  0.216  0.418  0.466  0.469  0.493  0.851  0.902  0.941  0.945  0.955
 eigenvectors:
  0.000  0.001  0.009  0.000  0.003  0.926  0.002  0.054  0.004  0.001
  0.000  0.003  0.292  0.405  0.000  0.031  0.000  0.267  0.002  0.000
  0.198  0.790  0.003  0.001  0.002  0.000  0.001  0.003  0.002  0.000
  0.000  0.002  0.176  0.124  0.001  0.025  0.011  0.652  0.007  0.001
  0.797  0.200  0.000  0.000  0.000  0.000  0.001  0.001  0.000  0.000
  0.003  0.001  0.002  0.000  0.000  0.001  0.640  0.010  0.276  0.067
  0.001  0.001  0.340  0.330  0.005  0.015  0.108  0.004  0.179  0.018
  0.000  0.000  0.000  0.001  0.682  0.001  0.005  0.001  0.019  0.291
  0.000  0.002  0.179  0.135  0.000  0.000  0.226  0.004  0.431  0.023
  0.000  0.001  0.001  0.004  0.306  0.001  0.006  0.004  0.079  0.599
 occupations, | n_(i1, i2)^(sigma1, sigma2) |:
  0.852  0.007  0.010  0.030  0.004  0.002  0.019  0.017  0.021  0.010
  0.007  0.607  0.015  0.211  0.008  0.015  0.021  0.003  0.001  0.010
  0.010  0.015  0.382  0.018  0.080  0.032  0.001  0.002  0.012  0.012
  0.030  0.211  0.018  0.794  0.018  0.008  0.019  0.012  0.021  0.004
  0.004  0.008  0.080  0.018  0.258  0.028  0.006  0.004  0.002  0.005
  0.002  0.015  0.032  0.008  0.028  0.914  0.007  0.009  0.020  0.002
  0.019  0.021  0.001  0.019  0.006  0.007  0.616  0.017  0.212  0.005
  0.017  0.003  0.002  0.012  0.004  0.009  0.017  0.639  0.010  0.212
  0.021  0.001  0.012  0.021  0.002  0.020  0.212  0.010  0.784  0.019
  0.010  0.010  0.012  0.004  0.005  0.002  0.005  0.212  0.019  0.810
atomic mx, my, mz =    -0.016207   -0.000148   -0.870543
atom    3   Tr[ns(na)] (up, down, total) =   3.07880  3.83812  6.91692
 eigenvalues: 
  0.313  0.438  0.487  0.497  0.517  0.890  0.922  0.945  0.948  0.960
 eigenvectors:
  0.004  0.003  0.009  0.000  0.002  0.925  0.005  0.051  0.000  0.000
  0.001  0.002  0.037  0.669  0.000  0.021  0.000  0.257  0.012  0.000
  0.072  0.909  0.001  0.003  0.006  0.004  0.002  0.000  0.002  0.000
  0.021  0.003  0.052  0.239  0.002  0.021  0.012  0.618  0.032  0.001
  0.895  0.075  0.003  0.003  0.000  0.004  0.004  0.015  0.000  0.000
  0.003  0.002  0.001  0.001  0.000  0.002  0.654  0.004  0.310  0.022
  0.001  0.000  0.600  0.063  0.007  0.020  0.101  0.030  0.167  0.011
  0.001  0.002  0.001  0.001  0.682  0.001  0.001  0.000  0.006  0.305
  0.000  0.001  0.293  0.019  0.000  0.000  0.220  0.018  0.440  0.009
  0.001  0.003  0.004  0.003  0.299  0.001  0.001  0.007  0.031  0.651
 occupations, | n_(i1, i2)^(sigma1, sigma2) |:
  0.885  0.003  0.032  0.024  0.024  0.001  0.028  0.017  0.023  0.010
  0.003  0.625  0.007  0.196  0.038  0.016  0.024  0.003  0.003  0.011
  0.032  0.007  0.434  0.008  0.028  0.032  0.004  0.001  0.007  0.012
  0.024  0.196  0.008  0.797  0.078  0.004  0.026  0.013  0.026  0.004
  0.024  0.038  0.028  0.078  0.338  0.028  0.001  0.007  0.007  0.004
  0.001  0.016  0.032  0.004  0.028  0.927  0.002  0.007  0.014  0.001
  0.028  0.024  0.004  0.026  0.001  0.002  0.635  0.016  0.205  0.007
  0.017  0.003  0.001  0.013  0.007  0.007  0.016  0.655  0.010  0.203
  0.023  0.003  0.007  0.026  0.007  0.014  0.205  0.010  0.799  0.017
  0.010  0.011  0.012  0.004  0.004  0.001  0.007  0.203  0.017  0.822
atomic mx, my, mz =    -0.010642   -0.006219   -0.759319
atom    4   Tr[ns(na)] (up, down, total) =   3.80354  2.59135  6.39489
 eigenvalues: 
  0.348  0.371  0.450  0.467  0.482  0.495  0.932  0.942  0.953  0.955
 eigenvectors:
  0.000  0.000  0.002  0.000  0.001  0.001  0.040  0.732  0.149  0.075
  0.000  0.011  0.127  0.493  0.025  0.009  0.000  0.005  0.111  0.218
  0.003  0.000  0.022  0.020  0.004  0.643  0.000  0.060  0.188  0.059
  0.000  0.001  0.067  0.256  0.011  0.001  0.001  0.007  0.177  0.480
  0.000  0.000  0.010  0.018  0.001  0.275  0.016  0.143  0.372  0.165
  0.228  0.295  0.001  0.001  0.042  0.001  0.408  0.020  0.003  0.001
  0.011  0.011  0.005  0.020  0.760  0.007  0.171  0.013  0.000  0.001
  0.000  0.021  0.761  0.156  0.002  0.056  0.000  0.003  0.000  0.000
  0.243  0.198  0.001  0.026  0.153  0.000  0.359  0.019  0.000  0.000
  0.513  0.462  0.004  0.009  0.000  0.007  0.003  0.000  0.000  0.000
 occupations, | n_(i1, i2)^(sigma1, sigma2) |:
  0.942  0.007  0.009  0.007  0.001  0.007  0.015  0.020  0.001  0.009
  0.007  0.627  0.014  0.230  0.006  0.014  0.004  0.000  0.013  0.008
  0.009  0.014  0.633  0.006  0.210  0.022  0.002  0.003  0.010  0.010
  0.007  0.230  0.006  0.790  0.015  0.009  0.003  0.009  0.010  0.001
  0.001  0.006  0.210  0.015  0.811  0.003  0.014  0.011  0.009  0.002
  0.007  0.014  0.022  0.009  0.003  0.613  0.140  0.016  0.240  0.014
  0.015  0.004  0.002  0.003  0.014  0.140  0.563  0.006  0.107  0.012
  0.020  0.000  0.003  0.009  0.011  0.016  0.006  0.455  0.005  0.010
  0.001  0.013  0.010  0.010  0.009  0.240  0.107  0.005  0.597  0.029
  0.009  0.008  0.010  0.001  0.002  0.014  0.012  0.010  0.029  0.363
atomic mx, my, mz =     0.012291   -0.000237    1.212198
N of occupied +U levels =   27.053422
 --- exit write_ns ---
 --- in v_hubbard ---
Hub. E (dc, noflip, flip, total)   10.4798  10.9863  -0.0075   0.4990
 -------

     total cpu time spent up to now is      206.7 secs

     total energy              =   -1116.76413358 Ry
     estimated scf accuracy    <       0.62131638 Ry

     total magnetization       =    -0.01    -0.01     0.27 Bohr mag/cell
     absolute magnetization    =     4.27 Bohr mag/cell

     iteration #  5     ecut=   300.00 Ry     beta= 0.30
     Davidson diagonalization with overlap

---- Real-time Memory Report at c_bands before calling an iterative solver
           846 MiB given to the printing process from OS
           662 MiB allocation reported by mallinfo(arena+hblkhd)
        209338 MiB available memory on the node where the printing process lives
------------------
     ethr =  4.20E-04,  avg # of iterations =  7.1
 --- enter write_ns ---
 LDA+U parameters:
U(  1) =   2.0000   J(  1) =   0.0000   B(  1) =   0.0000
U(  2) =   2.0000   J(  2) =   0.0000   B(  2) =   0.0000
atom    1   Tr[ns(na)] (up, down, total) =   3.78405  2.21294  5.99698
 eigenvalues: 
  0.209  0.226  0.408  0.472  0.476  0.486  0.890  0.932  0.946  0.951
 eigenvectors:
  0.003  0.000  0.001  0.001  0.000  0.001  0.000  0.696  0.240  0.058
  0.000  0.003  0.000  0.282  0.374  0.005  0.000  0.012  0.008  0.317
  0.001  0.000  0.000  0.007  0.006  0.686  0.000  0.075  0.218  0.007
  0.000  0.000  0.001  0.131  0.197  0.009  0.000  0.020  0.033  0.608
  0.000  0.001  0.001  0.000  0.001  0.296  0.008  0.192  0.496  0.006
  0.102  0.454  0.002  0.001  0.000  0.001  0.432  0.001  0.003  0.003
  0.033  0.092  0.000  0.403  0.285  0.001  0.184  0.002  0.000  0.000
  0.179  0.062  0.753  0.002  0.000  0.001  0.000  0.003  0.000  0.001
  0.106  0.215  0.003  0.172  0.135  0.001  0.366  0.001  0.001  0.000
  0.575  0.174  0.239  0.001  0.001  0.000  0.008  0.000  0.000  0.000
 occupations, | n_(i1, i2)^(sigma1, sigma2) |:
  0.933  0.007  0.011  0.003  0.001  0.016  0.020  0.032  0.006  0.023
  0.007  0.634  0.016  0.223  0.004  0.017  0.004  0.002  0.016  0.006
  0.011  0.016  0.623  0.006  0.207  0.023  0.000  0.001  0.007  0.005
  0.003  0.223  0.006  0.789  0.016  0.014  0.002  0.011  0.012  0.001
  0.001  0.004  0.207  0.016  0.806  0.006  0.014  0.012  0.009  0.004
  0.016  0.017  0.023  0.014  0.006  0.518  0.184  0.001  0.271  0.032
  0.020  0.004  0.000  0.002  0.014  0.184  0.520  0.001  0.058  0.021
  0.032  0.002  0.001  0.011  0.012  0.001  0.001  0.363  0.003  0.083
  0.006  0.016  0.007  0.012  0.009  0.271  0.058  0.003  0.546  0.043
  0.023  0.006  0.005  0.001  0.004  0.032  0.021  0.083  0.043  0.266
atomic mx, my, mz =     0.012880   -0.000194    1.571110
atom    2   Tr[ns(na)] (up, down, total) =   3.25107  3.93366  7.18473
 eigenvalues: 
  0.408  0.460  0.504  0.510  0.555  0.924  0.950  0.953  0.955  0.966
 eigenvectors:
  0.000  0.001  0.002  0.002  0.002  0.983  0.004  0.001  0.004  0.000
  0.001  0.019  0.686  0.000  0.000  0.006  0.277  0.007  0.004  0.000
  0.047  0.899  0.015  0.022  0.011  0.000  0.001  0.005  0.001  0.000
  0.005  0.004  0.280  0.006  0.001  0.000  0.691  0.011  0.000  0.001
  0.936  0.033  0.006  0.013  0.008  0.000  0.002  0.001  0.001  0.000
  0.001  0.004  0.003  0.001  0.001  0.000  0.017  0.610  0.345  0.019
  0.006  0.017  0.007  0.649  0.003  0.007  0.004  0.097  0.209  0.002
  0.003  0.007  0.001  0.001  0.674  0.001  0.000  0.003  0.003  0.308
  0.001  0.011  0.001  0.301  0.000  0.001  0.002  0.251  0.431  0.001
  0.001  0.006  0.000  0.004  0.300  0.001  0.003  0.014  0.001  0.670
 occupations, | n_(i1, i2)^(sigma1, sigma2) |:
  0.921  0.017  0.009  0.013  0.000  0.001  0.017  0.016  0.014  0.010
  0.017  0.634  0.014  0.201  0.006  0.015  0.018  0.002  0.002  0.009
  0.009  0.014  0.463  0.012  0.014  0.031  0.002  0.002  0.011  0.013
  0.013  0.201  0.012  0.817  0.023  0.010  0.014  0.010  0.018  0.003
  0.000  0.006  0.014  0.023  0.415  0.026  0.011  0.009  0.001  0.006
  0.001  0.015  0.031  0.010  0.026  0.950  0.005  0.004  0.003  0.001
  0.017  0.018  0.002  0.014  0.011  0.005  0.650  0.015  0.205  0.006
  0.016  0.002  0.002  0.010  0.009  0.004  0.015  0.683  0.008  0.190
  0.014  0.002  0.011  0.018  0.001  0.003  0.205  0.008  0.814  0.015
  0.010  0.009  0.013  0.003  0.006  0.001  0.006  0.190  0.015  0.837
atomic mx, my, mz =    -0.012271    0.002102   -0.682589
atom    3   Tr[ns(na)] (up, down, total) =   2.85088  3.80293  6.65381
 eigenvalues: 
  0.202  0.424  0.488  0.492  0.505  0.794  0.919  0.933  0.941  0.957
 eigenvectors:
  0.004  0.002  0.010  0.002  0.003  0.929  0.001  0.028  0.021  0.001
  0.003  0.002  0.512  0.190  0.000  0.023  0.002  0.035  0.233  0.000
  0.242  0.740  0.003  0.002  0.001  0.006  0.003  0.002  0.000  0.000
  0.015  0.009  0.249  0.039  0.002  0.013  0.025  0.079  0.569  0.001
  0.729  0.244  0.004  0.000  0.000  0.003  0.005  0.003  0.012  0.000
  0.006  0.002  0.002  0.000  0.000  0.000  0.759  0.126  0.090  0.016
  0.000  0.000  0.137  0.532  0.003  0.023  0.063  0.228  0.009  0.005
  0.000  0.000  0.000  0.001  0.682  0.001  0.002  0.000  0.001  0.313
  0.000  0.000  0.084  0.231  0.000  0.002  0.135  0.482  0.064  0.002
  0.000  0.001  0.000  0.004  0.308  0.001  0.004  0.017  0.000  0.664
 occupations, | n_(i1, i2)^(sigma1, sigma2) |:
  0.794  0.001  0.033  0.037  0.019  0.003  0.011  0.016  0.028  0.008
  0.001  0.616  0.016  0.195  0.045  0.020  0.019  0.003  0.003  0.010
  0.033  0.016  0.376  0.018  0.090  0.042  0.006  0.002  0.012  0.012
  0.037  0.195  0.018  0.791  0.084  0.001  0.017  0.013  0.024  0.004
  0.019  0.045  0.090  0.084  0.274  0.037  0.002  0.005  0.004  0.004
  0.003  0.020  0.042  0.001  0.037  0.917  0.002  0.007  0.008  0.001
  0.011  0.019  0.006  0.017  0.002  0.002  0.631  0.016  0.200  0.006
  0.016  0.003  0.002  0.013  0.005  0.007  0.016  0.648  0.009  0.208
  0.028  0.003  0.012  0.024  0.004  0.008  0.200  0.009  0.792  0.016
  0.008  0.010  0.012  0.004  0.004  0.001  0.006  0.208  0.016  0.814
atomic mx, my, mz =    -0.018532   -0.008571   -0.952052
atom    4   Tr[ns(na)] (up, down, total) =   4.05561  3.78458  7.84019
 eigenvalues: 
  0.460  0.535  0.542  0.608  0.908  0.932  0.952  0.964  0.968  0.971
 eigenvectors:
  0.001  0.001  0.000  0.000  0.000  0.001  0.004  0.663  0.035  0.295
  0.000  0.008  0.661  0.002  0.000  0.001  0.001  0.093  0.111  0.124
  0.000  0.000  0.000  0.697  0.001  0.002  0.001  0.012  0.211  0.077
  0.000  0.002  0.323  0.000  0.003  0.001  0.000  0.185  0.188  0.297
  0.000  0.001  0.002  0.294  0.003  0.000  0.004  0.043  0.449  0.205
  0.000  0.004  0.002  0.003  0.721  0.073  0.193  0.000  0.004  0.000
  0.002  0.622  0.010  0.000  0.105  0.001  0.257  0.001  0.000  0.002
  0.636  0.006  0.000  0.001  0.024  0.330  0.001  0.002  0.000  0.000
  0.007  0.356  0.001  0.001  0.111  0.000  0.521  0.001  0.001  0.000
  0.353  0.001  0.001  0.002  0.031  0.591  0.019  0.000  0.000  0.000
 occupations, | n_(i1, i2)^(sigma1, sigma2) |:
  0.965  0.002  0.004  0.005  0.001  0.001  0.009  0.011  0.006  0.007
  0.002  0.682  0.010  0.199  0.007  0.016  0.005  0.003  0.013  0.013
  0.004  0.010  0.717  0.004  0.163  0.015  0.001  0.006  0.008  0.016
  0.005  0.199  0.004  0.829  0.012  0.008  0.011  0.011  0.003  0.002
  0.001  0.007  0.163  0.012  0.862  0.009  0.008  0.012  0.001  0.004
  0.001  0.016  0.015  0.008  0.009  0.915  0.007  0.007  0.027  0.002
  0.009  0.005  0.001  0.011  0.008  0.007  0.683  0.017  0.194  0.001
  0.011  0.003  0.006  0.011  0.012  0.007  0.017  0.629  0.014  0.223
  0.006  0.013  0.008  0.003  0.001  0.027  0.194  0.014  0.794  0.025
  0.007  0.013  0.016  0.002  0.004  0.002  0.001  0.223  0.025  0.763
atomic mx, my, mz =     0.000627   -0.001234    0.271023
N of occupied +U levels =   27.675717
 --- exit write_ns ---
 --- in v_hubbard ---
Hub. E (dc, noflip, flip, total)   10.7161  11.2262  -0.0059   0.5041
 -------

     total cpu time spent up to now is      240.5 secs

          k = 0.0000 0.0000 0.0000     band energies (ev):

   -68.5209 -67.4727 -67.4552 -66.5286 -66.4522 -66.1248 -65.5206 -65.1513
   -40.2722 -39.8846 -39.3180 -38.9008 -38.3282 -37.9747 -37.9209 -37.6338
   -37.2909 -36.8081 -36.5098 -36.3622 -36.1982 -35.7839 -35.6116 -35.3784
   -35.3316 -35.0035 -34.8192 -34.6397 -34.5858 -34.3717 -34.3075 -34.0223
   -10.2467 -10.2368  -9.7606  -9.7516  -9.5115  -9.5077  -9.4607  -9.4490
    -9.2835  -9.2497  -9.2363  -9.2304  -9.0811  -9.0493  -9.0464  -9.0331
    -8.9946  -8.9514  -8.8426  -8.7968  -8.7722  -8.7684  -8.6706  -8.6666
    -0.0923   0.0060   0.0286   0.2525   0.4429   0.4506   0.5058   0.5732
     0.5880   0.6448   0.6847   0.7594   0.7979   0.8232   0.9407   0.9688
     1.0321   1.0548   1.0995   1.1201   1.1600   1.1922   1.2256   1.2908
     1.3530   1.4963   1.5542   1.5894   1.6367   1.6732   1.8434   1.8855
     1.9601   1.9998   2.0513   2.0555   2.1214   2.1585   2.1835   2.2035
     2.2095   2.2233   2.2341   2.2457   2.2688   2.3059   2.5542   2.5979
     3.1736   3.1802   3.2691   3.2743   3.4596   3.4765   3.5243   3.5553
     3.5588   3.6518   3.8712   3.8976   3.9349   3.9767   4.0009   4.0422
     4.0806   4.2758   4.2834   4.3205   4.3389   4.4087   4.4497   4.4903
     4.5350   4.5960   4.8102   4.8499   4.9424   5.0358   5.1541   5.1873
     5.2837   5.5276   5.5759   5.5883   5.6714   5.8052   5.9422   5.9967
     6.0330   6.2272   6.3004   6.3596   6.6964   7.0629   7.2036   7.3819
     7.5019   7.5832   7.6187   8.0468   8.1434   8.2184   8.5462   8.5879

     occupation numbers 
     0.0000   0.0000   0.0000   0.0000   0.0000   0.0000   0.0000   0.0000
     0.0000   0.0000   0.0000   0.0000   0.0000   0.0000   0.0000   0.0000
     0.0000   0.0000   0.0000   0.0000   0.0000   0.0000   0.0000   0.0000
     0.0000   0.0000   0.0000   0.0000   0.0000   0.0000   0.0000   0.0000
     0.0000   0.0000   0.0000   0.0000   0.0000   0.0000   0.0000   0.0000
     0.0000   0.0000   0.0000   0.0000   0.0000   0.0000   0.0000   0.0000
     0.0000   0.0000   0.0000   0.0000   0.0000   0.0000   0.0000   0.0000
     0.0000   0.0000   0.0000   0.0000   0.0000   0.0000   0.0000   0.0000
     0.0000   0.0000   0.0000   0.0000   0.0000   0.0000   0.0000   0.0000
     0.0000   0.0000   0.0000   0.0000   0.0000   0.0000   0.0000   0.0000
     0.0000   0.0000   0.0000   0.0000   0.0000   0.0000   0.0000   0.0000
     0.0000   0.0000   0.0000   0.0000   0.0000   0.0000   0.0000   0.0000
     0.0000   0.0000   0.0000   0.0000   0.0000   0.0000   0.0000   0.0000
     0.0000   0.0000   0.0000   0.0000   0.0000   0.0000   0.0000   0.0000
     0.0000   0.0000   0.0000   0.0000   0.0000   0.0000   0.0000   0.0000
     0.0000   0.0000   0.0000   0.0000   0.0000   0.0000   0.0000   0.0000
     0.0000   0.0000   0.0000   0.0000   0.0000   0.0000   0.0000   0.0000
     0.0000   0.0000   0.0000   0.0000   0.0000   0.0000   0.0000   0.0000
     0.0000   0.0000   0.0000   0.0000   0.0000   0.0000   0.0000   0.0000
     0.0000   0.0000   0.0000   0.0000   0.0000   0.0000   0.0000   0.0000

          k = 0.5000 0.0000 0.1735     band energies (ev):

   -68.5209 -67.4727 -67.4552 -66.5286 -66.4522 -66.1248 -65.5206 -65.1513
   -40.2721 -39.8846 -39.3179 -38.9008 -38.3283 -37.9748 -37.9209 -37.6338
   -37.2907 -36.8082 -36.5098 -36.3620 -36.1981 -35.7839 -35.6117 -35.3787
   -35.3312 -35.0035 -34.8192 -34.6397 -34.5858 -34.3719 -34.3075 -34.0224
    -9.9670  -9.9562  -9.6682  -9.6552  -9.5060  -9.5039  -9.4906  -9.4791
    -9.3785  -9.3526  -9.3298  -9.3069  -9.1441  -9.1258  -9.0941  -9.0746
    -8.9888  -8.9667  -8.9472  -8.9245  -8.7890  -8.7852  -8.6954  -8.6922
     0.1937   0.3058   0.3377   0.4279   0.4497   0.5124   0.5258   0.5673
     0.6160   0.6481   0.7252   0.7528   0.7969   0.8403   0.9154   0.9244
     0.9552   1.0409   1.1191   1.1516   1.2303   1.2389   1.3282   1.3377
     1.3860   1.4092   1.4204   1.4505   1.6712   1.6791   1.7180   1.7350
     1.7794   1.9564   2.0043   2.0219   2.2721   2.3043   2.4022   2.4093
     2.4783   2.4960   2.5282   2.6017   2.8633   2.8705   2.8827   2.9066
     2.9740   2.9867   3.1173   3.1444   3.2475   3.3114   3.3290   3.4301
     3.4635   3.5007   3.5357   3.5471   3.5858   3.6126   3.6452   3.6840
     3.8182   3.8429   3.9276   3.9392   3.9889   4.0476   4.1653   4.1857
     4.4745   4.6104   4.7708   4.9203   4.9837   5.2883   5.4249   5.4987
     5.5674   5.5913   5.6561   5.7469   5.8661   5.8892   5.9881   6.0261
     6.0695   6.1122   6.3662   6.5197   6.8765   7.0887   7.1763   7.3209
     7.4029   7.7877   7.8691   8.2959   8.3439   8.4603   8.9161   8.9346

     occupation numbers 
     1.0000   1.0000   1.0000   1.0000   1.0000   1.0000   1.0000   1.0000
     1.0000   1.0000   1.0000   1.0000   1.0000   1.0000   1.0000   1.0000
     1.0000   1.0000   1.0000   1.0000   1.0000   1.0000   1.0000   1.0000
     1.0000   1.0000   1.0000   1.0000   1.0000   1.0000   1.0000   1.0000
     1.0000   1.0000   1.0000   1.0000   1.0000   1.0000   1.0000   1.0000
     1.0000   1.0000   1.0000   1.0000   1.0000   1.0000   1.0000   1.0000
     1.0000   1.0000   1.0000   1.0000   1.0000   1.0000   1.0000   1.0000
     1.0000   1.0000   1.0000   1.0000   1.0000   1.0000   1.0000   1.0000
     1.0000   1.0000   1.0000   1.0000   1.0000   1.0000   1.0000   1.0000
     1.0000   1.0000   1.0000   1.0000   1.0000   1.0000   1.0000   1.0000
     1.0000   1.0000   1.0000   1.0000   1.0000   1.0000   1.0000   1.0000
     1.0000   1.0000   1.0000   1.0000   1.0000   1.0000   1.0000   1.0000
     1.0000   1.0000   1.0000   1.0000   1.0000   1.0000   1.0000   1.0000
     1.0000   1.0000   1.0000   1.0000   1.0000   1.0000   1.0000   1.0000
     1.0000   1.0000   1.0000   1.0000   1.0000   1.0000   1.0000   1.0000
     1.0000   1.0000   1.0000   1.0000   1.0000   1.0000   1.0000   1.0000
     1.0000   1.0000   1.0000   1.0000   1.0000   1.0000   1.0000   1.0000
     1.0000   1.0000   1.0000   1.0000   1.0000   1.0000   1.0000   1.0000
     1.0000   1.0000   1.0000   1.0000   0.0000   0.0000   0.0000   0.0000
     0.0000   0.0000   0.0000   0.0000   0.0000   0.0000   0.0000   0.0000

          k = 0.0000 0.2867 0.0000     band energies (ev):

   -68.5209 -67.4727 -67.4553 -66.5286 -66.4522 -66.1248 -65.5206 -65.1513
   -40.2722 -39.8846 -39.3180 -38.9008 -38.3282 -37.9747 -37.9209 -37.6338
   -37.2909 -36.8081 -36.5098 -36.3622 -36.1982 -35.7839 -35.6116 -35.3784
   -35.3316 -35.0035 -34.8192 -34.6397 -34.5858 -34.3717 -34.3075 -34.0223
   -10.2025 -10.1893  -9.9020  -9.8921  -9.4608  -9.4493  -9.4022  -9.3960
    -9.2832  -9.2360  -9.2189  -9.2022  -9.0823  -9.0705  -9.0652  -9.0344
    -8.9940  -8.9508  -8.8433  -8.8005  -8.7949  -8.7888  -8.6707  -8.6666
    -0.0366   0.0548   0.0879   0.3581   0.3661   0.4192   0.4461   0.4835
     0.4962   0.5292   0.5644   0.6950   0.7535   0.8197   0.8383   0.8857
     1.0862   1.1148   1.1417   1.1697   1.2923   1.3820   1.4271   1.4533
     1.4812   1.4999   1.5176   1.5752   1.5950   1.6229   1.6407   1.6927
     1.7500   1.7841   1.8666   1.8754   1.9676   2.0242   2.0575   2.1185
[...]
  0.017  0.003  0.023  0.021  0.019  0.156  0.048  0.187  0.091  0.697
atomic mx, my, mz =    -0.134427   -0.007494    0.794731
N of occupied +U levels =   27.766716
 --- exit write_ns ---
 --- in v_hubbard ---
Hub. E (dc, noflip, flip, total)   12.1282  12.5501  -0.0079   0.4141
 -------

     total cpu time spent up to now is     3462.1 secs

     total energy              =   -1117.02324292 Ry
     estimated scf accuracy    <       0.00064503 Ry

     total magnetization       =    -0.43    -0.02    -0.02 Bohr mag/cell
     absolute magnetization    =     4.98 Bohr mag/cell

     iteration # 73     ecut=   300.00 Ry     beta= 0.30
     Davidson diagonalization with overlap

---- Real-time Memory Report at c_bands before calling an iterative solver
           892 MiB given to the printing process from OS
           693 MiB allocation reported by mallinfo(arena+hblkhd)
        208195 MiB available memory on the node where the printing process lives
------------------
     ethr =  4.08E-07,  avg # of iterations =  3.4
 --- enter write_ns ---
 LDA+U parameters:
U(  1) =   2.0000   J(  1) =   0.0000   B(  1) =   0.0000
U(  2) =   2.0000   J(  2) =   0.0000   B(  2) =   0.0000
atom    1   Tr[ns(na)] (up, down, total) =   3.87196  3.07181  6.94377
 eigenvalues: 
  0.229  0.460  0.484  0.499  0.516  0.929  0.945  0.957  0.959  0.966
 eigenvectors:
  0.014  0.001  0.001  0.000  0.001  0.002  0.017  0.029  0.173  0.763
  0.005  0.000  0.000  0.002  0.631  0.001  0.028  0.087  0.174  0.072
  0.004  0.000  0.013  0.658  0.001  0.006  0.002  0.243  0.071  0.002
  0.005  0.000  0.000  0.001  0.362  0.003  0.023  0.119  0.333  0.153
  0.005  0.001  0.002  0.321  0.002  0.008  0.014  0.439  0.205  0.005
  0.669  0.004  0.004  0.000  0.000  0.218  0.059  0.021  0.022  0.004
  0.065  0.002  0.587  0.016  0.000  0.067  0.248  0.005  0.010  0.001
  0.018  0.629  0.006  0.000  0.001  0.262  0.068  0.014  0.002  0.001
  0.158  0.004  0.387  0.001  0.001  0.057  0.371  0.011  0.011  0.000
  0.059  0.359  0.001  0.000  0.001  0.378  0.170  0.032  0.000  0.000
 occupations, | n_(i1, i2)^(sigma1, sigma2) |:
  0.953  0.000  0.003  0.016  0.008  0.073  0.034  0.025  0.022  0.011
  0.000  0.675  0.013  0.208  0.003  0.041  0.017  0.003  0.027  0.005
  0.003  0.013  0.646  0.002  0.210  0.043  0.005  0.006  0.003  0.022
  0.016  0.208  0.002  0.795  0.022  0.043  0.006  0.021  0.016  0.017
  0.008  0.003  0.210  0.022  0.804  0.036  0.029  0.003  0.025  0.017
  0.073  0.041  0.043  0.043  0.036  0.460  0.169  0.095  0.212  0.120
  0.034  0.017  0.005  0.006  0.029  0.169  0.619  0.014  0.149  0.043
  0.025  0.003  0.006  0.021  0.003  0.095  0.014  0.620  0.037  0.203
  0.022  0.027  0.003  0.016  0.025  0.212  0.149  0.037  0.651  0.083
  0.011  0.005  0.022  0.017  0.017  0.120  0.043  0.203  0.083  0.722
atomic mx, my, mz =    -0.124649   -0.004779    0.800142
atom    2   Tr[ns(na)] (up, down, total) =   3.06280  3.87516  6.93795
 eigenvalues: 
  0.224  0.464  0.481  0.500  0.519  0.920  0.948  0.955  0.959  0.967
 eigenvectors:
  0.000  0.000  0.008  0.002  0.000  0.963  0.015  0.008  0.001  0.003
  0.005  0.006  0.714  0.009  0.001  0.006  0.114  0.131  0.014  0.000
  0.266  0.713  0.004  0.001  0.000  0.000  0.000  0.008  0.006  0.001
  0.015  0.000  0.246  0.012  0.000  0.003  0.203  0.485  0.033  0.002
  0.691  0.277  0.002  0.000  0.000  0.000  0.001  0.026  0.002  0.000
  0.022  0.001  0.005  0.000  0.001  0.006  0.250  0.266  0.448  0.001
  0.000  0.000  0.001  0.001  0.691  0.004  0.137  0.026  0.140  0.001
  0.000  0.000  0.010  0.662  0.002  0.004  0.004  0.000  0.005  0.313
  0.000  0.000  0.003  0.003  0.304  0.012  0.275  0.048  0.345  0.009
  0.000  0.001  0.008  0.311  0.001  0.000  0.000  0.003  0.005  0.671
 occupations, | n_(i1, i2)^(sigma1, sigma2) |:
  0.917  0.032  0.003  0.016  0.007  0.006  0.006  0.018  0.003  0.016
  0.032  0.605  0.017  0.197  0.044  0.033  0.012  0.005  0.016  0.013
  0.003  0.017  0.408  0.037  0.093  0.072  0.002  0.004  0.012  0.014
  0.016  0.197  0.037  0.820  0.082  0.005  0.008  0.017  0.016  0.004
  0.007  0.044  0.093  0.082  0.313  0.081  0.003  0.003  0.006  0.007
  0.006  0.033  0.072  0.005  0.081  0.935  0.005  0.001  0.010  0.001
  0.006  0.012  0.002  0.008  0.003  0.005  0.652  0.013  0.199  0.003
  0.018  0.005  0.004  0.017  0.003  0.001  0.013  0.652  0.007  0.217
  0.003  0.016  0.012  0.016  0.006  0.010  0.199  0.007  0.819  0.013
  0.016  0.013  0.014  0.004  0.007  0.001  0.003  0.217  0.013  0.817
atomic mx, my, mz =    -0.042235    0.001573   -0.812360
atom    3   Tr[ns(na)] (up, down, total) =   3.06541  3.87521  6.94062
 eigenvalues: 
  0.226  0.464  0.482  0.500  0.518  0.922  0.950  0.954  0.959  0.967
 eigenvectors:
  0.000  0.000  0.007  0.002  0.001  0.978  0.008  0.002  0.000  0.002
  0.009  0.004  0.714  0.016  0.002  0.002  0.001  0.250  0.000  0.000
  0.260  0.715  0.003  0.001  0.000  0.000  0.004  0.005  0.010  0.001
  0.027  0.000  0.237  0.016  0.004  0.006  0.002  0.704  0.003  0.001
  0.679  0.276  0.002  0.000  0.000  0.000  0.007  0.028  0.008  0.000
  0.023  0.001  0.003  0.000  0.000  0.002  0.448  0.007  0.513  0.002
  0.000  0.000  0.002  0.000  0.686  0.000  0.177  0.001  0.132  0.001
  0.000  0.001  0.017  0.656  0.001  0.005  0.002  0.001  0.005  0.313
  0.000  0.001  0.003  0.003  0.304  0.007  0.349  0.001  0.325  0.007
  0.000  0.002  0.012  0.306  0.000  0.000  0.000  0.002  0.003  0.674
 occupations, | n_(i1, i2)^(sigma1, sigma2) |:
  0.917  0.030  0.005  0.016  0.006  0.002  0.011  0.018  0.004  0.016
  0.030  0.599  0.028  0.191  0.060  0.032  0.002  0.004  0.014  0.012
  0.005  0.028  0.412  0.053  0.087  0.073  0.002  0.003  0.012  0.014
  0.016  0.191  0.053  0.813  0.105  0.006  0.013  0.016  0.002  0.003
  0.006  0.060  0.087  0.105  0.323  0.082  0.005  0.004  0.005  0.006
  0.002  0.032  0.073  0.006  0.082  0.935  0.006  0.001  0.009  0.001
  0.011  0.002  0.002  0.013  0.005  0.006  0.654  0.013  0.200  0.003
  0.018  0.004  0.003  0.016  0.004  0.001  0.013  0.652  0.007  0.217
  0.004  0.014  0.012  0.002  0.005  0.009  0.200  0.007  0.818  0.013
  0.016  0.012  0.014  0.003  0.006  0.001  0.003  0.217  0.013  0.817
atomic mx, my, mz =    -0.027902   -0.001518   -0.809796
atom    4   Tr[ns(na)] (up, down, total) =   3.86896  3.07545  6.94441
 eigenvalues: 
  0.234  0.459  0.484  0.497  0.515  0.930  0.944  0.957  0.959  0.966
 eigenvectors:
  0.015  0.001  0.001  0.000  0.001  0.001  0.007  0.043  0.133  0.797
  0.005  0.000  0.003  0.004  0.630  0.001  0.019  0.125  0.155  0.057
  0.004  0.000  0.004  0.662  0.003  0.007  0.000  0.214  0.101  0.004
  0.005  0.000  0.002  0.002  0.355  0.000  0.010  0.186  0.316  0.123
  0.004  0.001  0.000  0.323  0.004  0.011  0.005  0.373  0.269  0.011
  0.655  0.004  0.003  0.000  0.000  0.238  0.065  0.015  0.014  0.005
  0.053  0.004  0.600  0.007  0.001  0.037  0.291  0.000  0.005  0.001
  0.031  0.629  0.008  0.000  0.001  0.274  0.042  0.014  0.001  0.001
  0.133  0.005  0.377  0.000  0.005  0.027  0.447  0.002  0.005  0.000
  0.095  0.355  0.002  0.001  0.002  0.404  0.114  0.027  0.001  0.000
 occupations, | n_(i1, i2)^(sigma1, sigma2) |:
  0.952  0.002  0.003  0.014  0.008  0.075  0.034  0.030  0.020  0.017
  0.002  0.672  0.013  0.208  0.002  0.040  0.019  0.005  0.026  0.003
  0.003  0.013  0.646  0.003  0.211  0.040  0.003  0.007  0.006  0.023
  0.014  0.208  0.003  0.796  0.021  0.044  0.005  0.023  0.014  0.021
  0.008  0.002  0.211  0.021  0.804  0.032  0.028  0.003  0.022  0.019
  0.075  0.040  0.040  0.044  0.032  0.472  0.152  0.120  0.191  0.155
  0.034  0.019  0.003  0.005  0.028  0.152  0.624  0.020  0.161  0.048
  0.030  0.005  0.007  0.023  0.003  0.120  0.020  0.610  0.044  0.188
  0.020  0.026  0.006  0.014  0.022  0.191  0.161  0.044  0.672  0.091
  0.017  0.003  0.023  0.021  0.019  0.155  0.048  0.188  0.091  0.698
atomic mx, my, mz =    -0.134912   -0.006462    0.793512
N of occupied +U levels =   27.766749
 --- exit write_ns ---
 --- in v_hubbard ---
Hub. E (dc, noflip, flip, total)   12.1290  12.5506  -0.0076   0.4140
 -------

     total cpu time spent up to now is     3497.8 secs

     total energy              =   -1117.02296757 Ry
     estimated scf accuracy    <       0.00064624 Ry

     total magnetization       =    -0.43    -0.02    -0.02 Bohr mag/cell
     absolute magnetization    =     5.02 Bohr mag/cell

     iteration # 74     ecut=   300.00 Ry     beta= 0.30
     Davidson diagonalization with overlap

---- Real-time Memory Report at c_bands before calling an iterative solver
           892 MiB given to the printing process from OS
           693 MiB allocation reported by mallinfo(arena+hblkhd)
        208199 MiB available memory on the node where the printing process lives
------------------
     ethr =  4.08E-07,  avg # of iterations =  5.2
 --- enter write_ns ---
 LDA+U parameters:
U(  1) =   2.0000   J(  1) =   0.0000   B(  1) =   0.0000
U(  2) =   2.0000   J(  2) =   0.0000   B(  2) =   0.0000
atom    1   Tr[ns(na)] (up, down, total) =   3.87239  3.07138  6.94377
 eigenvalues: 
  0.229  0.460  0.484  0.499  0.516  0.929  0.945  0.957  0.959  0.966
 eigenvectors:
  0.013  0.001  0.001  0.000  0.001  0.002  0.018  0.027  0.175  0.763
  0.005  0.001  0.000  0.002  0.631  0.001  0.030  0.084  0.176  0.072
  0.004  0.000  0.014  0.658  0.001  0.006  0.003  0.246  0.067  0.002
  0.004  0.000  0.000  0.001  0.362  0.003  0.026  0.113  0.335  0.154
  0.005  0.001  0.002  0.321  0.002  0.009  0.014  0.445  0.197  0.005
  0.668  0.004  0.004  0.000  0.000  0.219  0.057  0.020  0.024  0.004
  0.065  0.002  0.586  0.017  0.000  0.067  0.246  0.005  0.012  0.001
  0.018  0.629  0.006  0.000  0.001  0.261  0.068  0.015  0.002  0.001
  0.158  0.004  0.386  0.001  0.001  0.057  0.368  0.011  0.013  0.000
  0.059  0.359  0.001  0.000  0.001  0.375  0.170  0.034  0.000  0.000
 occupations, | n_(i1, i2)^(sigma1, sigma2) |:
  0.953  0.000  0.003  0.016  0.008  0.072  0.034  0.025  0.021  0.010
  0.000  0.675  0.013  0.208  0.003  0.041  0.016  0.004  0.026  0.005
  0.003  0.013  0.646  0.002  0.210  0.042  0.005  0.006  0.003  0.022
  0.016  0.208  0.002  0.795  0.021  0.043  0.006  0.021  0.016  0.016
  0.008  0.003  0.210  0.021  0.804  0.036  0.029  0.003  0.025  0.017
  0.072  0.041  0.042  0.043  0.036  0.460  0.169  0.096  0.212  0.120
  0.034  0.016  0.005  0.006  0.029  0.169  0.619  0.015  0.149  0.043
  0.025  0.004  0.006  0.021  0.003  0.096  0.015  0.620  0.037  0.203
  0.021  0.026  0.003  0.016  0.025  0.212  0.149  0.037  0.650  0.083
  0.010  0.005  0.022  0.016  0.017  0.120  0.043  0.203  0.083  0.722
atomic mx, my, mz =    -0.124258   -0.004755    0.801008
atom    2   Tr[ns(na)] (up, down, total) =   3.06183  3.87592  6.93775
 eigenvalues: 
  0.224  0.464  0.481  0.500  0.519  0.920  0.948  0.955  0.959  0.967
 eigenvectors:
  0.000  0.000  0.008  0.002  0.000  0.961  0.016  0.008  0.001  0.003
  0.005  0.006  0.714  0.008  0.000  0.007  0.115  0.133  0.012  0.000
  0.266  0.713  0.004  0.001  0.000  0.000  0.000  0.008  0.006  0.001
  0.015  0.000  0.246  0.012  0.000  0.003  0.206  0.489  0.026  0.002
  0.692  0.277  0.002  0.000  0.000  0.000  0.001  0.025  0.003  0.000
  0.021  0.001  0.005  0.000  0.001  0.006  0.253  0.252  0.460  0.001
  0.000  0.000  0.001  0.001  0.691  0.005  0.134  0.028  0.139  0.001
  0.000  0.000  0.009  0.663  0.001  0.004  0.004  0.000  0.005  0.313
  0.000  0.000  0.002  0.002  0.305  0.014  0.270  0.053  0.344  0.009
  0.000  0.001  0.008  0.311  0.001  0.000  0.000  0.003  0.005  0.671
 occupations, | n_(i1, i2)^(sigma1, sigma2) |:
  0.917  0.032  0.003  0.016  0.007  0.006  0.006  0.018  0.002  0.016
  0.032  0.605  0.017  0.197  0.044  0.033  0.012  0.005  0.016  0.013
  0.003  0.017  0.407  0.036  0.094  0.071  0.002  0.004  0.012  0.014
  0.016  0.197  0.036  0.820  0.081  0.006  0.008  0.017  0.016  0.004
  0.007  0.044  0.094  0.081  0.312  0.079  0.003  0.003  0.006  0.007
  0.006  0.033  0.071  0.006  0.079  0.936  0.005  0.001  0.010  0.001
  0.006  0.012  0.002  0.008  0.003  0.005  0.652  0.013  0.199  0.003
  0.018  0.005  0.004  0.017  0.003  0.001  0.013  0.652  0.007  0.217
  0.002  0.016  0.012  0.016  0.006  0.010  0.199  0.007  0.819  0.013
  0.016  0.013  0.014  0.004  0.007  0.001  0.003  0.217  0.013  0.817
atomic mx, my, mz =    -0.041606   -0.000342   -0.814087
atom    3   Tr[ns(na)] (up, down, total) =   3.06471  3.87616  6.94088
 eigenvalues: 
  0.226  0.464  0.482  0.500  0.518  0.921  0.949  0.954  0.959  0.967
 eigenvectors:
  0.000  0.000  0.007  0.002  0.001  0.978  0.008  0.002  0.000  0.002
  0.009  0.004  0.717  0.016  0.001  0.002  0.000  0.250  0.001  0.000
  0.261  0.715  0.003  0.001  0.000  0.000  0.005  0.004  0.009  0.001
  0.026  0.000  0.238  0.015  0.003  0.006  0.005  0.699  0.006  0.001
  0.681  0.276  0.002  0.000  0.000  0.000  0.007  0.027  0.008  0.000
  0.022  0.001  0.003  0.000  0.001  0.002  0.445  0.014  0.512  0.002
  0.000  0.000  0.001  0.000  0.687  0.000  0.178  0.001  0.131  0.001
  0.000  0.001  0.016  0.657  0.001  0.004  0.002  0.001  0.005  0.313
  0.000  0.001  0.002  0.002  0.306  0.006  0.350  0.001  0.325  0.007
  0.000  0.002  0.012  0.306  0.001  0.000  0.000  0.002  0.003  0.674
 occupations, | n_(i1, i2)^(sigma1, sigma2) |:
  0.917  0.030  0.005  0.017  0.007  0.002  0.011  0.018  0.004  0.016
  0.030  0.600  0.028  0.191  0.059  0.031  0.001  0.004  0.014  0.012
  0.005  0.028  0.411  0.052  0.088  0.071  0.002  0.003  0.012  0.014
  0.017  0.191  0.052  0.814  0.105  0.005  0.013  0.016  0.001  0.003
  0.007  0.059  0.088  0.105  0.323  0.079  0.005  0.004  0.005  0.006
  0.002  0.031  0.071  0.005  0.079  0.936  0.005  0.001  0.009  0.001
  0.011  0.001  0.002  0.013  0.005  0.005  0.654  0.013  0.200  0.003
  0.018  0.004  0.003  0.016  0.004  0.001  0.013  0.652  0.007  0.217
  0.004  0.014  0.012  0.001  0.005  0.009  0.200  0.007  0.818  0.013
  0.016  0.012  0.014  0.003  0.006  0.001  0.003  0.217  0.013  0.817
atomic mx, my, mz =    -0.024617   -0.001557   -0.811450
atom    4   Tr[ns(na)] (up, down, total) =   3.86981  3.07472  6.94453
 eigenvalues: 
  0.234  0.459  0.484  0.497  0.515  0.930  0.943  0.957  0.959  0.966
 eigenvectors:
  0.015  0.001  0.001  0.000  0.001  0.001  0.009  0.041  0.135  0.797
  0.005  0.000  0.003  0.005  0.630  0.001  0.021  0.122  0.156  0.057
  0.004  0.000  0.005  0.662  0.003  0.008  0.000  0.216  0.098  0.004
  0.005  0.000  0.002  0.002  0.355  0.000  0.013  0.182  0.318  0.123
  0.004  0.001  0.000  0.323  0.004  0.012  0.004  0.378  0.264  0.011
  0.655  0.004  0.003  0.000  0.000  0.240  0.064  0.013  0.015  0.005
  0.053  0.004  0.599  0.008  0.002  0.036  0.289  0.000  0.007  0.001
  0.031  0.630  0.007  0.000  0.001  0.273  0.041  0.015  0.001  0.001
  0.134  0.004  0.376  0.000  0.005  0.027  0.445  0.003  0.007  0.000
  0.095  0.355  0.002  0.001  0.001  0.402  0.113  0.030  0.000  0.000
 occupations, | n_(i1, i2)^(sigma1, sigma2) |:
  0.952  0.001  0.003  0.014  0.008  0.074  0.034  0.030  0.020  0.017
  0.001  0.672  0.013  0.208  0.003  0.040  0.019  0.005  0.025  0.003
  0.003  0.013  0.646  0.003  0.211  0.040  0.003  0.007  0.006  0.023
  0.014  0.208  0.003  0.796  0.021  0.043  0.004  0.023  0.013  0.021
  0.008  0.003  0.211  0.021  0.804  0.031  0.028  0.003  0.022  0.019
  0.074  0.040  0.040  0.043  0.031  0.473  0.152  0.120  0.191  0.156
  0.034  0.019  0.003  0.004  0.028  0.152  0.624  0.020  0.161  0.048
  0.030  0.005  0.007  0.023  0.003  0.120  0.020  0.609  0.045  0.187
  0.020  0.025  0.006  0.013  0.022  0.191  0.161  0.045  0.672  0.091
  0.017  0.003  0.023  0.021  0.019  0.156  0.048  0.187  0.091  0.697
atomic mx, my, mz =    -0.133797   -0.008634    0.795089
N of occupied +U levels =   27.766929
 --- exit write_ns ---
 --- in v_hubbard ---
Hub. E (dc, noflip, flip, total)   12.1281  12.5497  -0.0077   0.4139
 -------

     total cpu time spent up to now is     3537.6 secs

     total energy              =   -1117.01680088 Ry
     estimated scf accuracy    <       0.00065556 Ry

     total magnetization       =    -0.43    -0.02    -0.02 Bohr mag/cell
     absolute magnetization    =     5.04 Bohr mag/cell

     iteration # 75     ecut=   300.00 Ry     beta= 0.30
     Davidson diagonalization with overlap

---- Real-time Memory Report at c_bands before calling an iterative solver
           892 MiB given to the printing process from OS
           693 MiB allocation reported by mallinfo(arena+hblkhd)
        208292 MiB available memory on the node where the printing process lives
------------------
     c_bands:  3 eigenvalues not converged

     Maximum CPU time exceeded

     max_seconds     =    3600.00
     elapsed seconds =    3602.36
     Calculation stopped in k-point loop, point #     8
     Calculation stopped in scf loop at iteration #    74

     Writing output data file pwscf_output/pwscf.save/
 
     init_run     :     18.68s CPU     19.45s WALL (       1 calls)
     electrons    :   3533.48s CPU   3583.77s WALL (       1 calls)

     Called by init_run:
     wfcinit      :     16.29s CPU     16.84s WALL (       1 calls)
     wfcinit:atom :      0.11s CPU      0.21s WALL (       8 calls)
     wfcinit:wfcr :     10.53s CPU     10.71s WALL (       8 calls)
     potinit      :      1.12s CPU      1.24s WALL (       1 calls)
     hinit0       :      0.76s CPU      0.81s WALL (       1 calls)

     Called by electrons:
     c_bands      :   2827.37s CPU   2869.92s WALL (      75 calls)
     sum_band     :    673.72s CPU    681.97s WALL (      74 calls)
     v_of_rho     :     11.29s CPU     11.49s WALL (      75 calls)
     v_h          :      0.30s CPU      0.31s WALL (      75 calls)
     v_xc         :     10.96s CPU     11.13s WALL (      75 calls)
     mix_rho      :      7.85s CPU      8.54s WALL (      74 calls)

     Called by c_bands:
     init_us_2    :      4.42s CPU      4.50s WALL (    1208 calls)
     cegterg      :   2706.14s CPU   2744.72s WALL (     601 calls)

     Called by sum_band:
     sum_band:wei :      0.00s CPU      0.00s WALL (      74 calls)
     sum_band:loo :     52.55s CPU     54.36s WALL (      74 calls)
     sum_band:buf :      9.43s CPU      9.65s WALL (     592 calls)
     sum_band:ini :      2.09s CPU      2.12s WALL (     592 calls)

     Called by *egterg:
     cdiaghg      :    222.91s CPU    224.68s WALL (    3698 calls)
     cegterg:over :    244.21s CPU    246.37s WALL (    3097 calls)
     cegterg:upda :    243.89s CPU    248.41s WALL (    3097 calls)
     cegterg:last :    446.24s CPU    450.04s WALL (    1644 calls)
     h_psi        :    424.48s CPU    430.79s WALL (    3706 calls)
     g_psi        :      8.94s CPU      9.05s WALL (    3097 calls)

     Called by h_psi:
     h_psi:calbec :     43.84s CPU     44.33s WALL (    3706 calls)
     vloc_psi     :    196.04s CPU    199.73s WALL (    3706 calls)
     add_vuspsi   :     38.41s CPU     38.82s WALL (    3706 calls)
     vhpsi        :    144.82s CPU    146.14s WALL (    3706 calls)

     General routines
     calbec       :     46.77s CPU     47.34s WALL (    3714 calls)
     fft          :      6.46s CPU      6.57s WALL (    1872 calls)
     ffts         :      2.36s CPU      2.38s WALL (     296 calls)
     fftw         :    218.30s CPU    223.11s WALL (   95636 calls)
     davcio       :      0.01s CPU      1.29s WALL (      34 calls)
 
     Parallel routines

     Hubbard U routines
     new_ns_nc    :    543.72s CPU    549.58s WALL (      74 calls)
     vhpsi        :    144.82s CPU    146.14s WALL (    3706 calls)
 
     PWSCF        :  59m14.35s CPU      1h 0m WALL

 
   This run was terminated on:  17:12: 7   2Feb2022            

=------------------------------------------------------------------------------=
   JOB DONE.
=------------------------------------------------------------------------------=
