
     Program PWSCF v.6.4.1 starts on 22Oct2021 at 13:55: 3 

     This program is part of the open-source Quantum ESPRESSO suite
     for quantum simulation of materials; please cite
         "P. Giannozzi et al., J. Phys.:Condens. Matter 21 395502 (2009);
         "P. Giannozzi et al., J. Phys.:Condens. Matter 29 465901 (2017);
          URL http://www.quantum-espresso.org", 
     in publications or presentations arising from this work. More details at
     http://www.quantum-espresso.org/quote

     Parallel version (MPI & OpenMP), running on     288 processor cores
     Number of MPI processes:                96
     Threads/MPI process:                     3

     MPI processes distributed on     8 nodes
     R & G space division:  proc/nbgrp/npool/nimage =      96
     Reading input from scf.in

     Current dimensions of program PWSCF are:
     Max number of different atomic species (ntypx) = 10
     Max number of k-points (npk) =  40000
     Max angular momentum in pseudopotentials (lmaxx) =  3

     IMPORTANT: XC functional enforced from input :
     Exchange-correlation      = PBE ( 1  4  3  4 0 0)
     Any further DFT definition will be discarded
     Please, verify this is what you really want


     Fixed quantization axis for GGA:     0.000000    0.000000    1.000000

     Subspace diagonalization in iterative solution of the eigenvalue problem:
     one sub-group per band group will be used
     scalapack distributed-memory algorithm (size of sub-group:  6*  6 procs)

     Message from routine setup:
     DEPRECATED: symmetry with ibrav=0, use correct ibrav instead
 
     Parallelization info
     --------------------
     sticks:   dense  smooth     PW     G-vecs:    dense   smooth      PW
     Min         115     115     30                61895    61895    8230
     Max         116     116     31                61958    61958    8255
     Sum       11077   11077   2905              5943287  5943287  790899
 


     bravais-lattice index     =            0
     lattice parameter (alat)  =       8.1895  a.u.
     unit-cell volume          =    2993.5487 (a.u.)^3
     number of atoms/cell      =            7
     number of atomic types    =            3
     number of electrons       =        85.00
     number of Kohn-Sham states=          104
     kinetic-energy cutoff     =     600.0000  Ry
     charge density cutoff     =    2400.0000  Ry
     convergence threshold     =      1.0E-10
     mixing beta               =       0.4000
     number of iterations used =            8  plain     mixing
     Exchange-correlation      = PBE ( 1  4  3  4 0 0)
     Noncollinear calculation with spin-orbit


     celldm(1)=   8.189506  celldm(2)=   0.000000  celldm(3)=   0.000000
     celldm(4)=   0.000000  celldm(5)=   0.000000  celldm(6)=   0.000000

     crystal axes: (cart. coord. in units of alat)
               a(1) = (   0.866025  -0.500000   0.000000 )  
               a(2) = (   0.000000   1.000000   0.000000 )  
               a(3) = (   0.000000   0.000000   6.293360 )  

     reciprocal axes: (cart. coord. in units 2 pi/alat)
               b(1) = (  1.154701  0.000000  0.000000 )  
               b(2) = (  0.577350  1.000000  0.000000 )  
               b(3) = (  0.000000  0.000000  0.158898 )  


     PseudoPot. # 1 for Bi read from file:
     ./Bi.upf
     MD5 check sum: 5fcce651b66763ab7701696c489caba4
     Pseudo is Norm-conserving, Zval = 23.0
     Generated by new atomic code, or converted to UPF format
     Using radial grid of 1190 points,  4 beta functions with: 
                l(1) =   1
                l(2) =   1
                l(3) =   2
                l(4) =   2

     PseudoPot. # 2 for Mn read from file:
     ./Mn.ccECP.upf
     MD5 check sum: b3d28dd9db8b6e441bb4f705408f00ed
     Pseudo is Norm-conserving, Zval = 15.0
     Generated by new atomic code, or converted to UPF format
     Using radial grid of 1159 points,  2 beta functions with: 
                l(1) =   1
                l(2) =   2

     PseudoPot. # 3 for Te read from file:
     ./Te.upf
     MD5 check sum: 13747896bef40d8043e0581260d3ff7d
     Pseudo is Norm-conserving, Zval =  6.0
     Generated by new atomic code, or converted to UPF format
     Using radial grid of 1178 points,  2 beta functions with: 
                l(1) =   0
                l(2) =   1

     atomic species   valence    mass     pseudopotential
        Bi            23.00   208.98000     Bi( 1.00)
        Mn            15.00    54.93800     Mn( 1.00)
        Te             6.00   127.60000     Te( 1.00)


     Full LDA+U calculation (l_max = 2) with parameters (eV):
     U(  2) =   0.1000   J(  2) =   0.0000   B(  2) =   0.0000
     LDA+U on averaged j=l+1/2,l-1/2 radial WFs



     12 Sym. Ops., with inversion, found


                                    s                        frac. trans.

      isym =  1     identity                                     

 Time Reversal            0
 cryst.   s( 1) = (     1          0          0      )
                  (     0          1          0      )
                  (     0          0          1      )

 cart.    s( 1) = (  1.0000000  0.0000000  0.0000000 )
                  (  0.0000000  1.0000000  0.0000000 )
                  (  0.0000000  0.0000000  1.0000000 )


      isym =  2     180 deg rotation - cart. axis [0,1,0]        

 Time Reversal            1
 cryst.   s( 2) = (    -1         -1          0      )
                  (     0          1          0      )
                  (     0          0         -1      )

 cart.    s( 2) = ( -1.0000000  0.0000000  0.0000000 )
                  (  0.0000000  1.0000000  0.0000000 )
                  (  0.0000000  0.0000000 -1.0000000 )


      isym =  3     120 deg rotation - cryst. axis [0,0,1]       

 Time Reversal            0
 cryst.   s( 3) = (     0          1          0      )
                  (    -1         -1          0      )
                  (     0          0          1      )

 cart.    s( 3) = ( -0.5000000 -0.8660254  0.0000000 )
                  (  0.8660254 -0.5000000  0.0000000 )
                  (  0.0000000  0.0000000  1.0000000 )


      isym =  4     120 deg rotation - cryst. axis [0,0,-1]      

 Time Reversal            0
 cryst.   s( 4) = (    -1         -1          0      )
                  (     1          0          0      )
                  (     0          0          1      )

 cart.    s( 4) = ( -0.5000000  0.8660254  0.0000000 )
                  ( -0.8660254 -0.5000000  0.0000000 )
                  (  0.0000000  0.0000000  1.0000000 )


      isym =  5     180 deg rotation - cryst. axis [1,-1,0]      

 Time Reversal            1
 cryst.   s( 5) = (     1          0          0      )
                  (    -1         -1          0      )
                  (     0          0         -1      )

 cart.    s( 5) = (  0.5000000 -0.8660254  0.0000000 )
                  ( -0.8660254 -0.5000000  0.0000000 )
                  (  0.0000000  0.0000000 -1.0000000 )


      isym =  6     180 deg rotation - cryst. axis [2,1,0]       

 Time Reversal            1
 cryst.   s( 6) = (     0          1          0      )
                  (     1          0          0      )
                  (     0          0         -1      )

 cart.    s( 6) = (  0.5000000  0.8660254  0.0000000 )
                  (  0.8660254 -0.5000000  0.0000000 )
                  (  0.0000000  0.0000000 -1.0000000 )


      isym =  7     inversion                                    

 Time Reversal            0
 cryst.   s( 7) = (    -1          0          0      )
                  (     0         -1          0      )
                  (     0          0         -1      )

 cart.    s( 7) = ( -1.0000000  0.0000000  0.0000000 )
                  (  0.0000000 -1.0000000  0.0000000 )
                  (  0.0000000  0.0000000 -1.0000000 )


      isym =  8     inv. 180 deg rotation - cart. axis [0,1,0]   

 Time Reversal            1
 cryst.   s( 8) = (     1          1          0      )
                  (     0         -1          0      )
                  (     0          0          1      )

 cart.    s( 8) = (  1.0000000  0.0000000  0.0000000 )
                  (  0.0000000 -1.0000000  0.0000000 )
                  (  0.0000000  0.0000000  1.0000000 )


      isym =  9     inv. 120 deg rotation - cryst. axis [0,0,1]  

 Time Reversal            0
 cryst.   s( 9) = (     0         -1          0      )
                  (     1          1          0      )
                  (     0          0         -1      )

 cart.    s( 9) = (  0.5000000  0.8660254  0.0000000 )
                  ( -0.8660254  0.5000000  0.0000000 )
                  (  0.0000000  0.0000000 -1.0000000 )


      isym = 10     inv. 120 deg rotation - cryst. axis [0,0,-1] 

 Time Reversal            0
 cryst.   s(10) = (     1          1          0      )
                  (    -1          0          0      )
                  (     0          0         -1      )

 cart.    s(10) = (  0.5000000 -0.8660254  0.0000000 )
                  (  0.8660254  0.5000000  0.0000000 )
                  (  0.0000000  0.0000000 -1.0000000 )


      isym = 11     inv. 180 deg rotation - cryst. axis [1,-1,0] 

 Time Reversal            1
 cryst.   s(11) = (    -1          0          0      )
                  (     1          1          0      )
                  (     0          0          1      )

 cart.    s(11) = ( -0.5000000  0.8660254  0.0000000 )
                  (  0.8660254  0.5000000  0.0000000 )
                  (  0.0000000  0.0000000  1.0000000 )


      isym = 12     inv. 180 deg rotation - cryst. axis [2,1,0]  

 Time Reversal            1
 cryst.   s(12) = (     0         -1          0      )
                  (    -1          0          0      )
                  (     0          0          1      )

 cart.    s(12) = ( -0.5000000 -0.8660254  0.0000000 )
                  ( -0.8660254  0.5000000  0.0000000 )
                  (  0.0000000  0.0000000  1.0000000 )


   Cartesian axes

     site n.     atom                  positions (alat units)
         1           Mn  tau(   1) = (   0.0000000   0.0000000   3.1466799  )
         2           Bi  tau(   2) = (   0.2886751   0.5000000   4.0108841  )
         3           Bi  tau(   3) = (   0.5773503   0.0000000   2.2824757  )
         4           Te  tau(   4) = (   0.0000000   0.0000000   4.4053204  )
         5           Te  tau(   5) = (   0.0000000   0.0000000   1.8880394  )
         6           Te  tau(   6) = (   0.2886751   0.5000000   2.7787701  )
         7           Te  tau(   7) = (   0.5773503   0.0000000   3.5145897  )

   Crystallographic axes

     site n.     atom                  positions (cryst. coord.)
         1           Mn  tau(   1) = (  0.0000000  0.0000000  0.5000000  )
         2           Bi  tau(   2) = (  0.3333333  0.6666667  0.6373200  )
         3           Bi  tau(   3) = (  0.6666667  0.3333333  0.3626800  )
         4           Te  tau(   4) = (  0.0000000  0.0000000  0.6999950  )
         5           Te  tau(   5) = (  0.0000000  0.0000000  0.3000050  )
         6           Te  tau(   6) = (  0.3333333  0.6666667  0.4415400  )
         7           Te  tau(   7) = (  0.6666667  0.3333333  0.5584600  )

     number of k points=    12  Fermi-Dirac smearing, width (Ry)=  0.0010
                       cart. coord. in units 2pi/alat
        k(    1) = (   0.0000000   0.0000000   0.0000000), wk =   0.0123457
        k(    2) = (   0.0641500   0.1111111   0.0000000), wk =   0.0740741
        k(    3) = (   0.1283001   0.2222222   0.0000000), wk =   0.0740741
        k(    4) = (   0.1924501   0.3333333   0.0000000), wk =   0.0740741
        k(    5) = (   0.2566001   0.4444444   0.0000000), wk =   0.0740741
        k(    6) = (   0.1924501   0.1111111   0.0000000), wk =   0.0740741
        k(    7) = (   0.2566001   0.2222222   0.0000000), wk =   0.1481481
        k(    8) = (   0.3207501   0.3333333   0.0000000), wk =   0.1481481
        k(    9) = (   0.3849002   0.4444444   0.0000000), wk =   0.0740741
        k(   10) = (   0.3849002   0.2222222   0.0000000), wk =   0.0740741
        k(   11) = (   0.4490502   0.3333333   0.0000000), wk =   0.1481481
        k(   12) = (   0.5773503   0.3333333   0.0000000), wk =   0.0246914

                       cryst. coord.
        k(    1) = (   0.0000000   0.0000000   0.0000000), wk =   0.0123457
        k(    2) = (   0.0000000   0.1111111   0.0000000), wk =   0.0740741
        k(    3) = (   0.0000000   0.2222222   0.0000000), wk =   0.0740741
        k(    4) = (   0.0000000   0.3333333   0.0000000), wk =   0.0740741
        k(    5) = (   0.0000000   0.4444444   0.0000000), wk =   0.0740741
        k(    6) = (   0.1111111   0.1111111   0.0000000), wk =   0.0740741
        k(    7) = (   0.1111111   0.2222222   0.0000000), wk =   0.1481481
        k(    8) = (   0.1111111   0.3333333   0.0000000), wk =   0.1481481
        k(    9) = (   0.1111111   0.4444444   0.0000000), wk =   0.0740741
        k(   10) = (   0.2222222   0.2222222   0.0000000), wk =   0.0740741
        k(   11) = (   0.2222222   0.3333333   0.0000000), wk =   0.1481481
        k(   12) = (   0.3333333   0.3333333   0.0000000), wk =   0.0246914

     Dense  grid:  5943287 G-vectors     FFT dimensions: ( 128, 128, 810)

     Dynamical RAM for                 wfc:      24.56 MB

     Dynamical RAM for     wfc (w. buffer):     319.31 MB

     Dynamical RAM for             U proj.:       2.36 MB

     Dynamical RAM for  U proj. (w. buff.):      30.70 MB

     Dynamical RAM for           str. fact:       2.83 MB

     Dynamical RAM for           local pot:       0.00 MB

     Dynamical RAM for          nlocal pot:       6.61 MB

     Dynamical RAM for                qrad:       7.31 MB

     Dynamical RAM for          rho,v,vnew:      24.84 MB

     Dynamical RAM for               rhoin:       8.28 MB

     Dynamical RAM for            rho*nmix:      60.48 MB

     Dynamical RAM for           G-vectors:       4.02 MB

     Dynamical RAM for          h,s,v(r/c):       0.22 MB

     Dynamical RAM for          <psi|beta>:       0.18 MB

     Dynamical RAM for                 psi:      98.25 MB

     Dynamical RAM for                hpsi:      98.25 MB

     Dynamical RAM for      wfcinit/wfcrot:      37.09 MB

     Estimated static dynamical RAM per process >     477.17 MB

     Estimated max dynamical RAM per process >     674.06 MB

     Estimated total dynamical RAM >      63.19 GB
     Generating pointlists ...
     new r_m :   0.2884 (alat units)  2.3621 (a.u.) for type    1
     new r_m :   0.2824 (alat units)  2.3127 (a.u.) for type    2
     new r_m :   0.2824 (alat units)  2.3127 (a.u.) for type    3

     Initial potential from superposition of free atoms

     starting charge   68.99997, renormalised to   85.00000

     negative rho (up, down):  3.008E-03 3.568E-03
 --- in v_hubbard ---
Hub. E (dc, noflip, flip, total)    0.0735   0.0735   0.0000   0.0000
 -------
     Number of +U iterations with fixed ns =  0
     Starting occupations:
 --- enter write_ns ---
 LDA+U parameters:
U(  2) =   0.1000   J(  2) =   0.0000   B(  2) =   0.0000
atom    1   Tr[ns(na)] (up, down, total) =   5.00000  0.00000  5.00000
 eigenvalues: 
  0.000  0.000  0.000  0.000  0.000  1.000  1.000  1.000  1.000  1.000
 eigenvectors:
  0.000  0.000  0.000  0.000  0.000  1.000  0.000  0.000  0.000  0.000
  0.000  0.000  0.000  0.000  0.000  0.000  1.000  0.000  0.000  0.000
  0.000  0.000  0.000  0.000  0.000  0.000  0.000  1.000  0.000  0.000
  0.000  0.000  0.000  0.000  0.000  0.000  0.000  0.000  1.000  0.000
  0.000  0.000  0.000  0.000  0.000  0.000  0.000  0.000  0.000  1.000
  1.000  0.000  0.000  0.000  0.000  0.000  0.000  0.000  0.000  0.000
  0.000  1.000  0.000  0.000  0.000  0.000  0.000  0.000  0.000  0.000
  0.000  0.000  1.000  0.000  0.000  0.000  0.000  0.000  0.000  0.000
  0.000  0.000  0.000  1.000  0.000  0.000  0.000  0.000  0.000  0.000
  0.000  0.000  0.000  0.000  1.000  0.000  0.000  0.000  0.000  0.000
 occupations, | n_(i1, i2)^(sigma1, sigma2) |:
  1.000  0.000  0.000  0.000  0.000  0.000  0.000  0.000  0.000  0.000
  0.000  1.000  0.000  0.000  0.000  0.000  0.000  0.000  0.000  0.000
  0.000  0.000  1.000  0.000  0.000  0.000  0.000  0.000  0.000  0.000
  0.000  0.000  0.000  1.000  0.000  0.000  0.000  0.000  0.000  0.000
  0.000  0.000  0.000  0.000  1.000  0.000  0.000  0.000  0.000  0.000
  0.000  0.000  0.000  0.000  0.000  0.000  0.000  0.000  0.000  0.000
  0.000  0.000  0.000  0.000  0.000  0.000  0.000  0.000  0.000  0.000
  0.000  0.000  0.000  0.000  0.000  0.000  0.000  0.000  0.000  0.000
  0.000  0.000  0.000  0.000  0.000  0.000  0.000  0.000  0.000  0.000
  0.000  0.000  0.000  0.000  0.000  0.000  0.000  0.000  0.000  0.000
atomic mx, my, mz =     0.000000    0.000000    5.000000
N of occupied +U levels =    5.000000
 --- exit write_ns ---

 ==============================================================================
     atom number    1 relative position :    0.0000   0.0000   3.1467
     charge :    15.978267
     magnetization :          0.000000    0.000000   15.790230
     magnetization/charge:    0.000000    0.000000    0.988232
     polar coord.: r, theta, phi [deg] :    15.790230    0.000000  360.000000

 ==============================================================================

 ==============================================================================
     atom number    2 relative position :    0.2887   0.5000   4.0109
     charge :    22.115509
     magnetization :          0.000000    0.000000    0.000004
     magnetization/charge:    0.000000    0.000000    0.000000
     polar coord.: r, theta, phi [deg] :     0.000004    0.000000  360.000000

 ==============================================================================

 ==============================================================================
     atom number    3 relative position :    0.5774   0.0000   2.2825
     charge :    22.115509
     magnetization :          0.000000    0.000000    0.000004
     magnetization/charge:    0.000000    0.000000    0.000000
     polar coord.: r, theta, phi [deg] :     0.000004    0.000000  360.000000

 ==============================================================================

 ==============================================================================
     atom number    4 relative position :    0.0000   0.0000   4.4053
     charge :     4.037224
     magnetization :          0.000000    0.000000    0.000000
     magnetization/charge:    0.000000    0.000000    0.000000
     polar coord.: r, theta, phi [deg] :     0.000000    0.000000  360.000000

 ==============================================================================

 ==============================================================================
     atom number    5 relative position :    0.0000   0.0000   1.8880
     charge :     4.037224
     magnetization :          0.000000    0.000000    0.000000
     magnetization/charge:    0.000000    0.000000    0.000000
     polar coord.: r, theta, phi [deg] :     0.000000    0.000000  360.000000

 ==============================================================================

 ==============================================================================
     atom number    6 relative position :    0.2887   0.5000   2.7788
     charge :     4.043115
     magnetization :          0.000000    0.000000    0.005536
     magnetization/charge:    0.000000    0.000000    0.001369
     polar coord.: r, theta, phi [deg] :     0.005536    0.000000  360.000000

 ==============================================================================

 ==============================================================================
     atom number    7 relative position :    0.5774   0.0000   3.5146
     charge :     4.043115
     magnetization :          0.000000    0.000000    0.005536
     magnetization/charge:    0.000000    0.000000    0.001369
     polar coord.: r, theta, phi [deg] :     0.005536    0.000000  360.000000

 ==============================================================================
 Atomic wfc used for LDA+U Projector are NOT orthogonalized
     Starting wfcs are   86 randomized atomic wfcs +   18 random wfcs

     total cpu time spent up to now is       22.8 secs

     Self-consistent Calculation

     iteration #  1     ecut=   600.00 Ry     beta= 0.40
     Davidson diagonalization with overlap
     ethr =  1.00E-02,  avg # of iterations =  9.8
 --- enter write_ns ---
 LDA+U parameters:
U(  2) =   0.1000   J(  2) =   0.0000   B(  2) =   0.0000
atom    1   Tr[ns(na)] (up, down, total) =   0.00925  0.00833  0.01758
 eigenvalues: 
  0.000  0.000  0.000  0.000  0.001  0.001  0.003  0.003  0.004  0.004
 eigenvectors:
  0.002  0.000  0.000  0.000  0.000  0.998  0.000  0.000  0.000  0.000
  0.000  0.094  0.002  0.082  0.001  0.000  0.000  0.002  0.405  0.414
  0.000  0.094  0.002  0.082  0.001  0.000  0.000  0.002  0.405  0.414
  0.000  0.404  0.008  0.407  0.001  0.000  0.000  0.000  0.095  0.085
  0.000  0.404  0.008  0.407  0.001  0.000  0.000  0.000  0.095  0.085
  0.000  0.003  0.000  0.000  0.997  0.000  0.000  0.000  0.000  0.000
  0.100  0.000  0.087  0.002  0.000  0.001  0.400  0.409  0.000  0.002
  0.100  0.000  0.087  0.002  0.000  0.001  0.400  0.409  0.000  0.002
  0.399  0.000  0.403  0.008  0.000  0.000  0.100  0.089  0.000  0.000
  0.399  0.000  0.403  0.008  0.000  0.000  0.100  0.089  0.000  0.000
 occupations, | n_(i1, i2)^(sigma1, sigma2) |:
  0.001  0.000  0.000  0.000  0.000  0.000  0.000  0.000  0.000  0.000
  0.000  0.003  0.000  0.001  0.000  0.000  0.000  0.000  0.000  0.000
  0.000  0.000  0.003  0.000  0.001  0.000  0.000  0.000  0.000  0.000
  0.000  0.001  0.000  0.001  0.000  0.000  0.000  0.000  0.000  0.000
  0.000  0.000  0.001  0.000  0.001  0.000  0.000  0.000  0.000  0.000
  0.000  0.000  0.000  0.000  0.000  0.001  0.000  0.000  0.000  0.000
  0.000  0.000  0.000  0.000  0.000  0.000  0.003  0.000  0.001  0.000
  0.000  0.000  0.000  0.000  0.000  0.000  0.000  0.003  0.000  0.001
  0.000  0.000  0.000  0.000  0.000  0.000  0.001  0.000  0.001  0.000
  0.000  0.000  0.000  0.000  0.000  0.000  0.000  0.001  0.000  0.001
atomic mx, my, mz =    -0.000000   -0.000000    0.000912
N of occupied +U levels =    0.017579
 --- exit write_ns ---

     negative rho (up, down):  6.048E-07 0.000E+00
 --- in v_hubbard ---
Hub. E (dc, noflip, flip, total)   -0.0001   0.0000  -0.0000   0.0001
 -------

     total cpu time spent up to now is      193.7 secs

     total energy              =    -703.94382561 Ry
     Harris-Foulkes estimate   =   -1185.69171283 Ry
     estimated scf accuracy    <     779.01222996 Ry

     total magnetization       =    -0.00     0.00     3.06 Bohr mag/cell
     absolute magnetization    =     3.20 Bohr mag/cell

     iteration #  2     ecut=   600.00 Ry     beta= 0.40
     Davidson diagonalization with overlap
     c_bands:  3 eigenvalues not converged
     c_bands:  3 eigenvalues not converged
     c_bands:  1 eigenvalues not converged
     c_bands:  2 eigenvalues not converged
     c_bands:  1 eigenvalues not converged
     ethr =  1.00E-02,  avg # of iterations = 20.2
 --- enter write_ns ---
 LDA+U parameters:
U(  2) =   0.1000   J(  2) =   0.0000   B(  2) =   0.0000
atom    1   Tr[ns(na)] (up, down, total) =   4.95657  4.97519  9.93176
 eigenvalues: 
  0.991  0.991  0.991  0.992  0.992  0.992  0.995  0.995  0.997  0.997
 eigenvectors:
  1.000  0.000  0.000  0.000  0.000  0.000  0.000  0.000  0.000  0.000
  0.000  0.468  0.485  0.031  0.015  0.001  0.000  0.000  0.000  0.000
  0.000  0.468  0.485  0.031  0.015  0.001  0.000  0.000  0.000  0.000
  0.000  0.031  0.015  0.431  0.485  0.039  0.000  0.000  0.000  0.000
  0.000  0.031  0.015  0.431  0.485  0.039  0.000  0.000  0.000  0.000
  0.000  0.001  0.000  0.077  0.000  0.922  0.000  0.000  0.000  0.000
  0.000  0.000  0.000  0.000  0.000  0.000  0.500  0.499  0.000  0.000
  0.000  0.000  0.000  0.000  0.000  0.000  0.500  0.499  0.000  0.000
  0.000  0.000  0.000  0.000  0.000  0.000  0.000  0.000  0.500  0.500
  0.000  0.000  0.000  0.000  0.000  0.000  0.000  0.000  0.500  0.500
 occupations, | n_(i1, i2)^(sigma1, sigma2) |:
  0.991  0.000  0.000  0.000  0.000  0.000  0.000  0.000  0.000  0.000
  0.000  0.991  0.000  0.000  0.000  0.000  0.000  0.000  0.000  0.000
  0.000  0.000  0.991  0.000  0.000  0.000  0.000  0.000  0.000  0.000
  0.000  0.000  0.000  0.992  0.000  0.000  0.000  0.000  0.000  0.000
  0.000  0.000  0.000  0.000  0.992  0.000  0.000  0.000  0.000  0.000
  0.000  0.000  0.000  0.000  0.000  0.992  0.000  0.000  0.000  0.000
  0.000  0.000  0.000  0.000  0.000  0.000  0.995  0.000  0.000  0.000
  0.000  0.000  0.000  0.000  0.000  0.000  0.000  0.995  0.000  0.000
  0.000  0.000  0.000  0.000  0.000  0.000  0.000  0.000  0.997  0.000
  0.000  0.000  0.000  0.000  0.000  0.000  0.000  0.000  0.000  0.997
atomic mx, my, mz =    -0.000000    0.000000   -0.018628
N of occupied +U levels =    9.931759
 --- exit write_ns ---

     negative rho (up, down):  4.663E-07 0.000E+00
 --- in v_hubbard ---
Hub. E (dc, noflip, flip, total)    0.0031   0.0079  -0.0000   0.0048
 -------

     total cpu time spent up to now is      552.8 secs

     total energy              =   -1041.74511545 Ry
     Harris-Foulkes estimate   =   -1512.31641857 Ry
     estimated scf accuracy    <    1715.43206701 Ry

     total magnetization       =     0.00    -0.00     2.44 Bohr mag/cell
     absolute magnetization    =     2.65 Bohr mag/cell

     iteration #  3     ecut=   600.00 Ry     beta= 0.40
     Davidson diagonalization with overlap
     ethr =  1.00E-02,  avg # of iterations = 17.5
 --- enter write_ns ---
 LDA+U parameters:
U(  2) =   0.1000   J(  2) =   0.0000   B(  2) =   0.0000
atom    1   Tr[ns(na)] (up, down, total) =   0.09143  0.05483  0.14627
 eigenvalues: 
  0.004  0.005  0.005  0.007  0.010  0.015  0.018  0.019  0.031  0.033
 eigenvectors:
  0.000  0.000  0.000  0.000  0.000  0.847  0.000  0.153  0.000  0.000
  0.000  0.002  0.030  0.039  0.000  0.000  0.000  0.000  0.470  0.459
  0.000  0.002  0.030  0.039  0.000  0.000  0.000  0.000  0.470  0.459
  0.000  0.008  0.470  0.452  0.000  0.000  0.000  0.000  0.030  0.040
  0.000  0.008  0.470  0.452  0.000  0.000  0.000  0.000  0.030  0.040
  0.000  0.000  0.000  0.000  0.999  0.000  0.000  0.000  0.001  0.000
  0.010  0.014  0.000  0.001  0.000  0.076  0.486  0.415  0.000  0.000
  0.010  0.014  0.000  0.001  0.000  0.076  0.486  0.415  0.000  0.000
  0.490  0.477  0.000  0.008  0.000  0.001  0.014  0.009  0.000  0.000
  0.490  0.477  0.000  0.008  0.000  0.001  0.014  0.009  0.000  0.000
 occupations, | n_(i1, i2)^(sigma1, sigma2) |:
  0.016  0.000  0.000  0.000  0.000  0.000  0.001  0.001  0.000  0.000
  0.000  0.030  0.001  0.007  0.001  0.000  0.000  0.000  0.000  0.000
  0.000  0.001  0.030  0.001  0.007  0.000  0.000  0.000  0.000  0.000
  0.000  0.007  0.001  0.008  0.001  0.000  0.000  0.000  0.000  0.000
  0.000  0.001  0.007  0.001  0.008  0.000  0.000  0.000  0.000  0.000
  0.000  0.000  0.000  0.000  0.000  0.010  0.000  0.000  0.000  0.000
  0.001  0.000  0.000  0.000  0.000  0.000  0.018  0.000  0.002  0.000
  0.001  0.000  0.000  0.000  0.000  0.000  0.000  0.018  0.000  0.002
  0.000  0.000  0.000  0.000  0.000  0.000  0.002  0.000  0.005  0.000
  0.000  0.000  0.000  0.000  0.000  0.000  0.000  0.002  0.000  0.005
atomic mx, my, mz =    -0.000000   -0.000000    0.036604
N of occupied +U levels =    0.146266
 --- exit write_ns ---

     negative rho (up, down):  3.411E-07 0.000E+00
 --- in v_hubbard ---
Hub. E (dc, noflip, flip, total)    0.0007   0.0045  -0.0000   0.0038
 -------

     total cpu time spent up to now is      802.5 secs

     total energy              =   -1156.32903624 Ry
     Harris-Foulkes estimate   =   -1229.61467992 Ry
     estimated scf accuracy    <     230.46264078 Ry

     total magnetization       =    -0.00     0.00     0.18 Bohr mag/cell
     absolute magnetization    =     0.45 Bohr mag/cell

     iteration #  4     ecut=   600.00 Ry     beta= 0.40
     Davidson diagonalization with overlap
     ethr =  1.00E-02,  avg # of iterations = 17.3
 --- enter write_ns ---
 LDA+U parameters:
U(  2) =   0.1000   J(  2) =   0.0000   B(  2) =   0.0000
atom    1   Tr[ns(na)] (up, down, total) =   4.89027  4.47059  9.36087
 eigenvalues: 
  0.746  0.757  0.976  0.976  0.977  0.981  0.981  0.986  0.989  0.993
 eigenvectors:
  0.000  0.000  0.000  0.000  1.000  0.000  0.000  0.000  0.000  0.000
  0.000  0.000  0.136  0.135  0.000  0.364  0.365  0.000  0.000  0.000
  0.000  0.000  0.136  0.135  0.000  0.364  0.365  0.000  0.000  0.000
  0.000  0.000  0.364  0.365  0.000  0.136  0.135  0.000  0.000  0.000
  0.000  0.000  0.364  0.365  0.000  0.136  0.135  0.000  0.000  0.000
  0.000  0.000  0.000  0.001  0.000  0.000  0.000  0.999  0.000  0.000
  0.084  0.067  0.000  0.000  0.000  0.000  0.000  0.000  0.433  0.416
  0.084  0.067  0.000  0.000  0.000  0.000  0.000  0.000  0.433  0.416
  0.416  0.433  0.000  0.000  0.000  0.000  0.000  0.000  0.067  0.084
  0.416  0.433  0.000  0.000  0.000  0.000  0.000  0.000  0.067  0.084
 occupations, | n_(i1, i2)^(sigma1, sigma2) |:
  0.977  0.000  0.000  0.000  0.000  0.000  0.000  0.000  0.000  0.000
  0.000  0.979  0.000  0.002  0.000  0.000  0.000  0.000  0.000  0.000
  0.000  0.000  0.979  0.000  0.002  0.000  0.000  0.000  0.000  0.000
  0.000  0.002  0.000  0.977  0.000  0.000  0.000  0.000  0.000  0.000
  0.000  0.000  0.002  0.000  0.977  0.000  0.000  0.000  0.000  0.000
  0.000  0.000  0.000  0.000  0.000  0.986  0.000  0.000  0.000  0.000
  0.000  0.000  0.000  0.000  0.000  0.000  0.955  0.003  0.086  0.007
  0.000  0.000  0.000  0.000  0.000  0.000  0.003  0.955  0.007  0.086
  0.000  0.000  0.000  0.000  0.000  0.000  0.086  0.007  0.788  0.000
  0.000  0.000  0.000  0.000  0.000  0.000  0.007  0.086  0.000  0.788
atomic mx, my, mz =    -0.000000   -0.000000    0.419680
N of occupied +U levels =    9.360870
 --- exit write_ns ---

     negative rho (up, down):  2.683E-07 0.000E+00
 --- in v_hubbard ---
Hub. E (dc, noflip, flip, total)    0.0260   0.0340  -0.0000   0.0080
 -------

     total cpu time spent up to now is      936.1 secs

     total energy              =   -1139.90184703 Ry
     Harris-Foulkes estimate   =   -1178.59283254 Ry
     estimated scf accuracy    <     158.28756390 Ry

     total magnetization       =    -0.00     0.00     0.87 Bohr mag/cell
     absolute magnetization    =     1.17 Bohr mag/cell

     iteration #  5     ecut=   600.00 Ry     beta= 0.40
     Davidson diagonalization with overlap
     ethr =  1.00E-02,  avg # of iterations =  5.3
 --- enter write_ns ---
 LDA+U parameters:
U(  2) =   0.1000   J(  2) =   0.0000   B(  2) =   0.0000
atom    1   Tr[ns(na)] (up, down, total) =   2.38901  0.25110  2.64011
 eigenvalues: 
  0.040  0.043  0.044  0.062  0.062  0.228  0.240  0.570  0.674  0.678
 eigenvectors:
  0.000  0.000  0.000  0.000  0.000  0.000  0.000  1.000  0.000  0.000
  0.000  0.000  0.000  0.000  0.000  0.400  0.401  0.000  0.099  0.099
  0.000  0.000  0.000  0.000  0.000  0.400  0.401  0.000  0.099  0.099
  0.000  0.000  0.000  0.000  0.000  0.099  0.099  0.000  0.401  0.401
  0.000  0.000  0.000  0.000  0.000  0.099  0.099  0.000  0.401  0.401
  1.000  0.000  0.000  0.000  0.000  0.000  0.000  0.000  0.000  0.000
  0.000  0.137  0.212  0.288  0.363  0.000  0.000  0.000  0.000  0.000
  0.000  0.137  0.212  0.288  0.363  0.000  0.000  0.000  0.000  0.000
  0.000  0.363  0.288  0.212  0.137  0.000  0.000  0.000  0.000  0.000
  0.000  0.363  0.288  0.212  0.137  0.000  0.000  0.000  0.000  0.000
 occupations, | n_(i1, i2)^(sigma1, sigma2) |:
  0.569  0.000  0.000  0.000  0.000  0.000  0.002  0.002  0.001  0.001
  0.000  0.321  0.005  0.176  0.002  0.003  0.001  0.001  0.002  0.002
  0.000  0.005  0.321  0.002  0.176  0.003  0.001  0.001  0.002  0.002
  0.000  0.176  0.002  0.588  0.003  0.000  0.002  0.002  0.001  0.001
  0.000  0.002  0.176  0.003  0.588  0.000  0.002  0.002  0.001  0.001
  0.000  0.003  0.003  0.000  0.000  0.040  0.000  0.000  0.000  0.000
  0.002  0.001  0.001  0.002  0.002  0.000  0.056  0.001  0.009  0.000
  0.002  0.001  0.001  0.002  0.002  0.000  0.001  0.056  0.000  0.009
  0.001  0.002  0.002  0.001  0.001  0.000  0.009  0.000  0.050  0.002
  0.001  0.002  0.002  0.001  0.001  0.000  0.000  0.009  0.002  0.050
atomic mx, my, mz =     0.000000   -0.000000    2.137912
N of occupied +U levels =    2.640115
 --- exit write_ns ---

     negative rho (up, down):  1.912E-07 0.000E+00
 --- in v_hubbard ---
Hub. E (dc, noflip, flip, total)    0.0360   0.0443  -0.0000   0.0084
 -------

     total cpu time spent up to now is     1025.1 secs

     total energy              =   -1137.06263004 Ry
     Harris-Foulkes estimate   =   -1148.94057650 Ry
     estimated scf accuracy    <      46.68846859 Ry

     total magnetization       =    -0.00    -0.00     2.17 Bohr mag/cell
     absolute magnetization    =     2.60 Bohr mag/cell

     iteration #  6     ecut=   600.00 Ry     beta= 0.40
     Davidson diagonalization with overlap
     ethr =  1.00E-02,  avg # of iterations =  5.8
 --- enter write_ns ---
 LDA+U parameters:
U(  2) =   0.1000   J(  2) =   0.0000   B(  2) =   0.0000
atom    1   Tr[ns(na)] (up, down, total) =   0.53927  0.14386  0.68313
 eigenvalues: 
  0.012  0.013  0.014  0.044  0.048  0.050  0.054  0.055  0.192  0.202
 eigenvectors:
  0.000  0.005  0.000  0.924  0.000  0.071  0.000  0.000  0.000  0.000
  0.000  0.000  0.000  0.000  0.168  0.000  0.139  0.084  0.332  0.277
  0.000  0.000  0.000  0.000  0.168  0.000  0.139  0.084  0.332  0.277
  0.001  0.000  0.000  0.000  0.331  0.000  0.170  0.108  0.168  0.222
  0.001  0.000  0.000  0.000  0.331  0.000  0.170  0.108  0.168  0.222
  0.999  0.000  0.000  0.000  0.001  0.000  0.000  0.000  0.000  0.000
  0.000  0.202  0.203  0.031  0.000  0.267  0.111  0.186  0.000  0.000
  0.000  0.202  0.203  0.031  0.000  0.267  0.111  0.186  0.000  0.000
  0.000  0.295  0.297  0.007  0.000  0.197  0.081  0.122  0.000  0.000
  0.000  0.295  0.297  0.007  0.000  0.197  0.081  0.122  0.000  0.000
 occupations, | n_(i1, i2)^(sigma1, sigma2) |:
  0.044  0.000  0.000  0.000  0.000  0.000  0.000  0.000  0.002  0.002
  0.000  0.140  0.004  0.071  0.003  0.001  0.000  0.000  0.001  0.001
  0.000  0.004  0.140  0.003  0.071  0.001  0.000  0.000  0.001  0.001
  0.000  0.071  0.003  0.108  0.012  0.002  0.001  0.001  0.001  0.001
  0.000  0.003  0.071  0.012  0.108  0.002  0.001  0.001  0.001  0.001
  0.000  0.001  0.001  0.002  0.002  0.012  0.000  0.000  0.000  0.000
  0.000  0.000  0.000  0.001  0.001  0.000  0.036  0.002  0.019  0.001
  0.000  0.000  0.000  0.001  0.001  0.000  0.002  0.036  0.001  0.019
  0.002  0.001  0.001  0.001  0.001  0.000  0.019  0.001  0.029  0.001
  0.002  0.001  0.001  0.001  0.001  0.000  0.001  0.019  0.001  0.029
atomic mx, my, mz =     0.000000   -0.000000    0.395408
N of occupied +U levels =    0.683127
 --- exit write_ns ---

     negative rho (up, down):  1.739E-07 0.000E+00
 --- in v_hubbard ---
Hub. E (dc, noflip, flip, total)    0.0253   0.0332  -0.0000   0.0079
 -------

     total cpu time spent up to now is     1109.9 secs

     total energy              =   -1137.34506937 Ry
     Harris-Foulkes estimate   =   -1140.64882035 Ry
     estimated scf accuracy    <      37.37194280 Ry

     total magnetization       =    -0.00     0.00     0.56 Bohr mag/cell
     absolute magnetization    =     0.87 Bohr mag/cell

     iteration #  7     ecut=   600.00 Ry     beta= 0.40
     Davidson diagonalization with overlap
     ethr =  1.00E-02,  avg # of iterations =  3.9
 --- enter write_ns ---
 LDA+U parameters:
U(  2) =   0.1000   J(  2) =   0.0000   B(  2) =   0.0000
atom    1   Tr[ns(na)] (up, down, total) =   4.83919  0.39578  5.23498
 eigenvalues: 
  0.043  0.086  0.086  0.089  0.090  0.964  0.965  0.968  0.970  0.972
 eigenvectors:
  0.000  0.000  0.000  0.000  0.000  0.000  0.000  1.000  0.000  0.000
  0.000  0.000  0.000  0.000  0.000  0.152  0.077  0.000  0.423  0.348
  0.000  0.000  0.000  0.000  0.000  0.152  0.077  0.000  0.423  0.348
  0.000  0.000  0.000  0.000  0.000  0.348  0.423  0.000  0.077  0.152
  0.000  0.000  0.000  0.000  0.000  0.348  0.423  0.000  0.077  0.152
  1.000  0.000  0.000  0.000  0.000  0.000  0.000  0.000  0.000  0.000
  0.000  0.017  0.018  0.483  0.482  0.000  0.000  0.000  0.000  0.000
  0.000  0.017  0.018  0.483  0.482  0.000  0.000  0.000  0.000  0.000
  0.000  0.483  0.482  0.017  0.018  0.000  0.000  0.000  0.000  0.000
  0.000  0.483  0.482  0.017  0.018  0.000  0.000  0.000  0.000  0.000
 occupations, | n_(i1, i2)^(sigma1, sigma2) |:
  0.968  0.000  0.000  0.000  0.000  0.000  0.000  0.000  0.001  0.001
  0.000  0.969  0.000  0.003  0.001  0.001  0.001  0.001  0.001  0.001
  0.000  0.000  0.969  0.001  0.003  0.001  0.001  0.001  0.001  0.001
  0.000  0.003  0.001  0.966  0.000  0.001  0.001  0.001  0.001  0.001
  0.000  0.001  0.003  0.000  0.966  0.001  0.001  0.001  0.001  0.001
  0.000  0.001  0.001  0.001  0.001  0.043  0.000  0.000  0.000  0.000
  0.000  0.001  0.001  0.001  0.001  0.000  0.090  0.000  0.001  0.000
  0.000  0.001  0.001  0.001  0.001  0.000  0.000  0.090  0.000  0.001
  0.001  0.001  0.001  0.001  0.001  0.000  0.001  0.000  0.086  0.000
  0.001  0.001  0.001  0.001  0.001  0.000  0.000  0.001  0.000  0.086
atomic mx, my, mz =     0.000000   -0.000000    4.443409
N of occupied +U levels =    5.234977
 --- exit write_ns ---

     negative rho (up, down):  2.667E-08 0.000E+00
 --- in v_hubbard ---
Hub. E (dc, noflip, flip, total)    0.0530   0.0597  -0.0000   0.0068
 -------

     total cpu time spent up to now is     1170.7 secs

     total energy              =   -1129.86284342 Ry
     Harris-Foulkes estimate   =   -1143.92729616 Ry
     estimated scf accuracy    <      41.36563274 Ry

     total magnetization       =    -0.00     0.00     4.32 Bohr mag/cell
     absolute magnetization    =     4.96 Bohr mag/cell

     iteration #  8     ecut=   600.00 Ry     beta= 0.40
     Davidson diagonalization with overlap
     ethr =  1.00E-02,  avg # of iterations =  4.4
 --- enter write_ns ---
 LDA+U parameters:
U(  2) =   0.1000   J(  2) =   0.0000   B(  2) =   0.0000
atom    1   Tr[ns(na)] (up, down, total) =   4.83560  0.18530  5.02091
 eigenvalues: 
  0.015  0.018  0.019  0.066  0.067  0.948  0.949  0.978  0.981  0.981
 eigenvectors:
  0.000  0.000  0.000  0.000  0.000  0.000  0.000  1.000  0.000  0.000
  0.000  0.000  0.000  0.000  0.000  0.315  0.272  0.000  0.228  0.185
  0.000  0.000  0.000  0.000  0.000  0.315  0.272  0.000  0.228  0.185
  0.000  0.000  0.000  0.000  0.000  0.185  0.228  0.000  0.272  0.315
  0.000  0.000  0.000  0.000  0.000  0.185  0.228  0.000  0.272  0.315
  1.000  0.000  0.000  0.000  0.000  0.000  0.000  0.000  0.000  0.000
  0.000  0.211  0.196  0.304  0.289  0.000  0.000  0.000  0.000  0.000
  0.000  0.211  0.196  0.304  0.289  0.000  0.000  0.000  0.000  0.000
  0.000  0.289  0.304  0.196  0.211  0.000  0.000  0.000  0.000  0.000
  0.000  0.289  0.304  0.196  0.211  0.000  0.000  0.000  0.000  0.000
 occupations, | n_(i1, i2)^(sigma1, sigma2) |:
  0.978  0.000  0.000  0.000  0.000  0.000  0.000  0.000  0.002  0.002
  0.000  0.961  0.002  0.016  0.000  0.001  0.001  0.001  0.000  0.000
  0.000  0.002  0.961  0.000  0.016  0.001  0.001  0.001  0.000  0.000
  0.000  0.016  0.000  0.967  0.001  0.000  0.000  0.000  0.000  0.000
  0.000  0.000  0.016  0.001  0.967  0.000  0.000  0.000  0.000  0.000
  0.000  0.001  0.001  0.000  0.000  0.015  0.000  0.000  0.000  0.000
  0.000  0.001  0.001  0.000  0.000  0.000  0.047  0.000  0.024  0.001
  0.000  0.001  0.001  0.000  0.000  0.000  0.000  0.047  0.001  0.024
  0.002  0.000  0.000  0.000  0.000  0.000  0.024  0.001  0.038  0.001
  0.002  0.000  0.000  0.000  0.000  0.000  0.001  0.024  0.001  0.038
atomic mx, my, mz =     0.000000   -0.000000    4.650303
N of occupied +U levels =    5.020907
 --- exit write_ns ---

     negative rho (up, down):  1.925E-08 0.000E+00
 --- in v_hubbard ---
Hub. E (dc, noflip, flip, total)    0.0648   0.0705  -0.0000   0.0057
 -------

     total cpu time spent up to now is     1245.4 secs

     total energy              =   -1135.51667809 Ry
     Harris-Foulkes estimate   =   -1135.31666061 Ry
     estimated scf accuracy    <       4.77511401 Ry

     total magnetization       =     0.00    -0.00     4.80 Bohr mag/cell
     absolute magnetization    =     5.33 Bohr mag/cell

     iteration #  9     ecut=   600.00 Ry     beta= 0.40
     Davidson diagonalization with overlap
     ethr =  5.62E-03,  avg # of iterations =  1.8
 --- enter write_ns ---
 LDA+U parameters:
U(  2) =   0.1000   J(  2) =   0.0000   B(  2) =   0.0000
atom    1   Tr[ns(na)] (up, down, total) =   2.53853  0.13362  2.67215
 eigenvalues: 
  0.012  0.014  0.014  0.046  0.048  0.319  0.461  0.559  0.595  0.605
 eigenvectors:
  0.000  0.000  0.000  0.000  0.000  0.999  0.000  0.000  0.000  0.000
  0.000  0.000  0.000  0.000  0.000  0.000  0.482  0.480  0.018  0.020
  0.000  0.000  0.000  0.000  0.000  0.000  0.482  0.480  0.018  0.020
  0.000  0.000  0.000  0.000  0.000  0.000  0.018  0.020  0.482  0.480
  0.000  0.000  0.000  0.000  0.000  0.000  0.018  0.020  0.482  0.480
  1.000  0.000  0.000  0.000  0.000  0.000  0.000  0.000  0.000  0.000
  0.000  0.192  0.223  0.308  0.277  0.000  0.000  0.000  0.000  0.000
  0.000  0.192  0.223  0.308  0.277  0.000  0.000  0.000  0.000  0.000
  0.000  0.308  0.277  0.192  0.222  0.000  0.000  0.000  0.000  0.000
  0.000  0.308  0.277  0.192  0.222  0.000  0.000  0.000  0.000  0.000
 occupations, | n_(i1, i2)^(sigma1, sigma2) |:
  0.318  0.000  0.000  0.000  0.000  0.000  0.001  0.001  0.005  0.005
  0.000  0.513  0.048  0.017  0.008  0.005  0.001  0.001  0.000  0.000
  0.000  0.048  0.513  0.008  0.017  0.005  0.001  0.001  0.000  0.000
  0.000  0.017  0.008  0.597  0.007  0.000  0.000  0.000  0.003  0.003
  0.000  0.008  0.017  0.007  0.597  0.000  0.000  0.000  0.003  0.003
  0.000  0.005  0.005  0.000  0.000  0.012  0.000  0.000  0.000  0.000
  0.001  0.001  0.001  0.000  0.000  0.000  0.033  0.001  0.016  0.000
  0.001  0.001  0.001  0.000  0.000  0.000  0.001  0.033  0.000  0.016
  0.005  0.000  0.000  0.003  0.003  0.000  0.016  0.000  0.028  0.001
  0.005  0.000  0.000  0.003  0.003  0.000  0.000  0.016  0.001  0.028
atomic mx, my, mz =    -0.000000   -0.000000    2.404914
N of occupied +U levels =    2.672148
 --- exit write_ns ---
 --- in v_hubbard ---
Hub. E (dc, noflip, flip, total)    0.0661   0.0715  -0.0000   0.0054
 -------

     total cpu time spent up to now is     1299.2 secs

     total energy              =   -1135.03099557 Ry
     Harris-Foulkes estimate   =   -1135.89555999 Ry
     estimated scf accuracy    <      24.73986379 Ry

     total magnetization       =    -0.00     0.00     2.86 Bohr mag/cell
     absolute magnetization    =     3.31 Bohr mag/cell

     iteration # 10     ecut=   600.00 Ry     beta= 0.40
     Davidson diagonalization with overlap
     ethr =  5.62E-03,  avg # of iterations =  1.0
 --- enter write_ns ---
 LDA+U parameters:
U(  2) =   0.1000   J(  2) =   0.0000   B(  2) =   0.0000
atom    1   Tr[ns(na)] (up, down, total) =   4.65235  0.15464  4.80699
 eigenvalues: 
  0.012  0.015  0.016  0.055  0.056  0.881  0.886  0.958  0.963  0.964
 eigenvectors:
  0.000  0.000  0.000  0.000  0.000  0.000  0.000  1.000  0.000  0.000
  0.000  0.000  0.000  0.000  0.000  0.338  0.299  0.000  0.162  0.201
  0.000  0.000  0.000  0.000  0.000  0.338  0.299  0.000  0.162  0.201
  0.000  0.000  0.000  0.000  0.000  0.162  0.201  0.000  0.338  0.299
  0.000  0.000  0.000  0.000  0.000  0.162  0.201  0.000  0.338  0.299
  1.000  0.000  0.000  0.000  0.000  0.000  0.000  0.000  0.000  0.000
  0.000  0.205  0.202  0.295  0.298  0.000  0.000  0.000  0.000  0.000
  0.000  0.205  0.202  0.295  0.298  0.000  0.000  0.000  0.000  0.000
  0.000  0.295  0.298  0.205  0.202  0.000  0.000  0.000  0.000  0.000
  0.000  0.295  0.298  0.205  0.202  0.000  0.000  0.000  0.000  0.000
 occupations, | n_(i1, i2)^(sigma1, sigma2) |:
  0.958  0.000  0.000  0.000  0.000  0.000  0.000  0.000  0.003  0.003
  0.000  0.912  0.005  0.039  0.000  0.001  0.002  0.002  0.000  0.000
  0.000  0.005  0.912  0.000  0.039  0.001  0.002  0.002  0.000  0.000
  0.000  0.039  0.000  0.935  0.002  0.001  0.000  0.000  0.000  0.000
  0.000  0.000  0.039  0.002  0.935  0.001  0.000  0.000  0.000  0.000
  0.000  0.001  0.001  0.001  0.001  0.012  0.000  0.000  0.000  0.000
  0.000  0.002  0.002  0.000  0.000  0.000  0.039  0.000  0.020  0.000
  0.000  0.002  0.002  0.000  0.000  0.000  0.000  0.039  0.000  0.020
  0.003  0.000  0.000  0.000  0.000  0.000  0.020  0.000  0.032  0.000
  0.003  0.000  0.000  0.000  0.000  0.000  0.000  0.020  0.000  0.032
atomic mx, my, mz =     0.000000   -0.000000    4.497712
N of occupied +U levels =    4.806986
 --- exit write_ns ---
 --- in v_hubbard ---
Hub. E (dc, noflip, flip, total)    0.0930   0.0932  -0.0000   0.0002
 -------

     total cpu time spent up to now is     1352.7 secs

     total energy              =   -1133.60635988 Ry
     Harris-Foulkes estimate   =   -1135.31451989 Ry
     estimated scf accuracy    <       8.66768861 Ry

     total magnetization       =     0.00    -0.00     4.61 Bohr mag/cell
     absolute magnetization    =     5.44 Bohr mag/cell

     iteration # 11     ecut=   600.00 Ry     beta= 0.40
     Davidson diagonalization with overlap
     ethr =  5.62E-03,  avg # of iterations =  1.2
 --- enter write_ns ---
 LDA+U parameters:
U(  2) =   0.1000   J(  2) =   0.0000   B(  2) =   0.0000
atom    1   Tr[ns(na)] (up, down, total) =   4.89915  0.21972  5.11886
 eigenvalues: 
  0.016  0.019  0.019  0.082  0.083  0.977  0.977  0.981  0.982  0.982
 eigenvectors:
  0.000  0.000  0.000  0.000  0.000  0.000  0.000  1.000  0.000  0.000
  0.000  0.000  0.000  0.000  0.000  0.173  0.115  0.000  0.327  0.385
  0.000  0.000  0.000  0.000  0.000  0.173  0.115  0.000  0.327  0.385
  0.000  0.000  0.000  0.000  0.000  0.327  0.385  0.000  0.173  0.115
  0.000  0.000  0.000  0.000  0.000  0.327  0.385  0.000  0.173  0.115
  1.000  0.000  0.000  0.000  0.000  0.000  0.000  0.000  0.000  0.000
  0.000  0.206  0.189  0.311  0.294  0.000  0.000  0.000  0.000  0.000
  0.000  0.206  0.189  0.311  0.294  0.000  0.000  0.000  0.000  0.000
  0.000  0.294  0.311  0.189  0.206  0.000  0.000  0.000  0.000  0.000
  0.000  0.294  0.311  0.189  0.206  0.000  0.000  0.000  0.000  0.000
 occupations, | n_(i1, i2)^(sigma1, sigma2) |:
  0.981  0.000  0.000  0.000  0.000  0.000  0.001  0.001  0.001  0.001
  0.000  0.981  0.000  0.002  0.000  0.001  0.000  0.000  0.000  0.000
  0.000  0.000  0.981  0.000  0.002  0.001  0.000  0.000  0.000  0.000
  0.000  0.002  0.000  0.978  0.000  0.001  0.001  0.001  0.000  0.000
  0.000  0.000  0.002  0.000  0.978  0.001  0.001  0.001  0.000  0.000
  0.000  0.001  0.001  0.001  0.001  0.016  0.000  0.000  0.000  0.000
  0.001  0.000  0.000  0.001  0.001  0.000  0.058  0.001  0.031  0.001
  0.001  0.000  0.000  0.001  0.001  0.000  0.001  0.058  0.001  0.031
  0.001  0.000  0.000  0.000  0.000  0.000  0.031  0.001  0.044  0.001
  0.001  0.000  0.000  0.000  0.000  0.000  0.001  0.031  0.001  0.044
atomic mx, my, mz =     0.000000   -0.000000    4.679428
N of occupied +U levels =    5.118863
 --- exit write_ns ---
 --- in v_hubbard ---
Hub. E (dc, noflip, flip, total)    0.0921   0.0922  -0.0000   0.0001
 -------

     total cpu time spent up to now is     1405.5 secs

     total energy              =   -1134.14773088 Ry
     Harris-Foulkes estimate   =   -1134.28244973 Ry
     estimated scf accuracy    <       0.59127615 Ry

     total magnetization       =     0.00     0.00     4.98 Bohr mag/cell
     absolute magnetization    =     5.77 Bohr mag/cell

     iteration # 12     ecut=   600.00 Ry     beta= 0.40
     Davidson diagonalization with overlap
     ethr =  6.96E-04,  avg # of iterations = 10.2
 --- enter write_ns ---
 LDA+U parameters:
U(  2) =   0.1000   J(  2) =   0.0000   B(  2) =   0.0000
atom    1   Tr[ns(na)] (up, down, total) =   4.95411  0.54497  5.49907
 eigenvalues: 
  0.038  0.039  0.040  0.213  0.214  0.989  0.989  0.992  0.992  0.993
 eigenvectors:
  0.000  0.000  0.000  0.000  0.000  0.000  0.000  0.000  0.000  1.000
  0.000  0.000  0.000  0.000  0.000  0.187  0.125  0.313  0.375  0.000
  0.000  0.000  0.000  0.000  0.000  0.187  0.125  0.313  0.375  0.000
  0.000  0.000  0.000  0.000  0.000  0.313  0.375  0.187  0.125  0.000
  0.000  0.000  0.000  0.000  0.000  0.313  0.375  0.187  0.125  0.000
  0.000  0.000  1.000  0.000  0.000  0.000  0.000  0.000  0.000  0.000
  0.160  0.184  0.000  0.340  0.316  0.000  0.000  0.000  0.000  0.000
  0.160  0.184  0.000  0.340  0.316  0.000  0.000  0.000  0.000  0.000
  0.340  0.316  0.000  0.160  0.184  0.000  0.000  0.000  0.000  0.000
  0.340  0.316  0.000  0.160  0.184  0.000  0.000  0.000  0.000  0.000
 occupations, | n_(i1, i2)^(sigma1, sigma2) |:
  0.993  0.000  0.000  0.000  0.000  0.000  0.002  0.002  0.001  0.001
  0.000  0.991  0.000  0.002  0.000  0.002  0.002  0.002  0.001  0.001
  0.000  0.000  0.991  0.000  0.002  0.002  0.002  0.002  0.001  0.001
  0.000  0.002  0.000  0.990  0.000  0.001  0.003  0.003  0.000  0.000
  0.000  0.000  0.002  0.000  0.990  0.001  0.003  0.003  0.000  0.000
  0.000  0.002  0.002  0.001  0.001  0.040  0.000  0.000  0.000  0.000
  0.002  0.002  0.002  0.003  0.003  0.000  0.154  0.004  0.083  0.001
  0.002  0.002  0.002  0.003  0.003  0.000  0.004  0.154  0.001  0.083
  0.001  0.001  0.001  0.000  0.000  0.000  0.083  0.001  0.099  0.005
  0.001  0.001  0.001  0.000  0.000  0.000  0.001  0.083  0.005  0.099
atomic mx, my, mz =     0.000000   -0.000000    4.409145
N of occupied +U levels =    5.499075
 --- exit write_ns ---
 --- in v_hubbard ---
Hub. E (dc, noflip, flip, total)    0.0904   0.0910  -0.0000   0.0006
 -------

     total cpu time spent up to now is     1506.3 secs

     total energy              =   -1134.22538232 Ry
     Harris-Foulkes estimate   =   -1134.26405618 Ry
     estimated scf accuracy    <       0.68864343 Ry

     total magnetization       =    -0.00     0.00     4.97 Bohr mag/cell
     absolute magnetization    =     5.92 Bohr mag/cell

     iteration # 13     ecut=   600.00 Ry     beta= 0.40
     Davidson diagonalization with overlap
     ethr =  6.96E-04,  avg # of iterations =  1.0
 --- enter write_ns ---
 LDA+U parameters:
U(  2) =   0.1000   J(  2) =   0.0000   B(  2) =   0.0000
atom    1   Tr[ns(na)] (up, down, total) =   4.95506  0.58950  5.54456
 eigenvalues: 
  0.042  0.043  0.043  0.230  0.231  0.989  0.989  0.992  0.992  0.993
 eigenvectors:
  0.000  0.000  0.000  0.000  0.000  0.000  0.000  0.000  0.000  1.000
  0.000  0.000  0.000  0.000  0.000  0.200  0.137  0.300  0.363  0.000
  0.000  0.000  0.000  0.000  0.000  0.200  0.137  0.300  0.363  0.000
  0.000  0.000  0.000  0.000  0.000  0.300  0.363  0.200  0.137  0.000
  0.000  0.000  0.000  0.000  0.000  0.300  0.363  0.200  0.137  0.000
  0.000  0.000  1.000  0.000  0.000  0.000  0.000  0.000  0.000  0.000
  0.158  0.183  0.000  0.342  0.317  0.000  0.000  0.000  0.000  0.000
  0.158  0.183  0.000  0.342  0.317  0.000  0.000  0.000  0.000  0.000
  0.342  0.317  0.000  0.158  0.183  0.000  0.000  0.000  0.000  0.000
  0.342  0.317  0.000  0.158  0.183  0.000  0.000  0.000  0.000  0.000
 occupations, | n_(i1, i2)^(sigma1, sigma2) |:
  0.993  0.000  0.000  0.000  0.000  0.000  0.002  0.002  0.001  0.001
  0.000  0.991  0.000  0.002  0.000  0.002  0.002  0.002  0.001  0.001
  0.000  0.000  0.991  0.000  0.002  0.002  0.002  0.002  0.001  0.001
  0.000  0.002  0.000  0.990  0.000  0.000  0.004  0.004  0.000  0.000
  0.000  0.000  0.002  0.000  0.990  0.000  0.004  0.004  0.000  0.000
  0.000  0.002  0.002  0.000  0.000  0.043  0.000  0.000  0.000  0.000
  0.002  0.002  0.002  0.004  0.004  0.000  0.167  0.004  0.089  0.001
  0.002  0.002  0.002  0.004  0.004  0.000  0.004  0.167  0.001  0.089
  0.001  0.001  0.001  0.000  0.000  0.000  0.089  0.001  0.107  0.005
  0.001  0.001  0.001  0.000  0.000  0.000  0.001  0.089  0.005  0.107
atomic mx, my, mz =     0.000000   -0.000000    4.365553
N of occupied +U levels =    5.544559
 --- exit write_ns ---
 --- in v_hubbard ---
Hub. E (dc, noflip, flip, total)    0.0879   0.0898  -0.0000   0.0018
 -------

     total cpu time spent up to now is     1558.8 secs

     total energy              =   -1134.18472623 Ry
     Harris-Foulkes estimate   =   -1134.23941390 Ry
     estimated scf accuracy    <       0.52022993 Ry

     total magnetization       =     0.00     0.00     4.96 Bohr mag/cell
     absolute magnetization    =     5.97 Bohr mag/cell

     iteration # 14     ecut=   600.00 Ry     beta= 0.40
     Davidson diagonalization with overlap
     ethr =  6.12E-04,  avg # of iterations =  2.1
 --- enter write_ns ---
 LDA+U parameters:
U(  2) =   0.1000   J(  2) =   0.0000   B(  2) =   0.0000
atom    1   Tr[ns(na)] (up, down, total) =   4.95863  0.84951  5.80814
 eigenvalues: 
  0.071  0.076  0.082  0.307  0.313  0.989  0.990  0.993  0.993  0.994
 eigenvectors:
  0.000  0.000  0.000  0.000  0.000  0.000  0.000  0.000  0.000  1.000
  0.000  0.000  0.000  0.000  0.000  0.159  0.224  0.276  0.341  0.000
  0.000  0.000  0.000  0.000  0.000  0.159  0.224  0.276  0.341  0.000
  0.000  0.000  0.000  0.000  0.000  0.341  0.276  0.224  0.159  0.000
  0.000  0.000  0.000  0.000  0.000  0.341  0.276  0.224  0.159  0.000
  0.000  0.000  1.000  0.000  0.000  0.000  0.000  0.000  0.000  0.000
  0.148  0.179  0.000  0.321  0.352  0.000  0.000  0.000  0.000  0.000
  0.148  0.179  0.000  0.321  0.352  0.000  0.000  0.000  0.000  0.000
  0.352  0.321  0.000  0.179  0.148  0.000  0.000  0.000  0.000  0.000
  0.352  0.321  0.000  0.179  0.148  0.000  0.000  0.000  0.000  0.000
 occupations, | n_(i1, i2)^(sigma1, sigma2) |:
  0.994  0.000  0.000  0.000  0.000  0.000  0.002  0.002  0.001  0.001
  0.000  0.992  0.000  0.002  0.000  0.001  0.005  0.005  0.001  0.001
  0.000  0.000  0.992  0.000  0.002  0.001  0.005  0.005  0.001  0.001
  0.000  0.002  0.000  0.991  0.000  0.001  0.004  0.004  0.002  0.002
  0.000  0.000  0.002  0.000  0.991  0.001  0.004  0.004  0.002  0.002
  0.000  0.001  0.001  0.001  0.001  0.082  0.000  0.000  0.000  0.000
  0.002  0.005  0.005  0.004  0.004  0.000  0.233  0.008  0.111  0.000
  0.002  0.005  0.005  0.004  0.004  0.000  0.008  0.233  0.000  0.111
  0.001  0.001  0.001  0.002  0.002  0.000  0.111  0.000  0.151  0.008
  0.001  0.001  0.001  0.002  0.002  0.000  0.000  0.111  0.008  0.151
atomic mx, my, mz =     0.000000   -0.000000    4.109114
N of occupied +U levels =    5.808141
 --- exit write_ns ---
 --- in v_hubbard ---
Hub. E (dc, noflip, flip, total)    0.0921   0.0941  -0.0000   0.0020
 -------

     total cpu time spent up to now is     1620.0 secs

     total energy              =   -1134.14520681 Ry
     Harris-Foulkes estimate   =   -1134.23315916 Ry
     estimated scf accuracy    <       0.80240370 Ry

     total magnetization       =     0.00     0.00     4.81 Bohr mag/cell
     absolute magnetization    =     5.89 Bohr mag/cell

     iteration # 15     ecut=   600.00 Ry     beta= 0.40
     Davidson diagonalization with overlap
     ethr =  6.12E-04,  avg # of iterations =  2.0
 --- enter write_ns ---
 LDA+U parameters:
U(  2) =   0.1000   J(  2) =   0.0000   B(  2) =   0.0000
atom    1   Tr[ns(na)] (up, down, total) =   4.93133  0.54098  5.47230
 eigenvalues: 
  0.039  0.040  0.041  0.210  0.211  0.981  0.982  0.990  0.990  0.990
 eigenvectors:
  0.000  0.000  0.000  0.000  0.000  0.000  0.000  0.000  0.000  1.000
  0.000  0.000  0.000  0.000  0.000  0.261  0.211  0.239  0.289  0.000
  0.000  0.000  0.000  0.000  0.000  0.261  0.211  0.239  0.289  0.000
  0.000  0.000  0.000  0.000  0.000  0.239  0.289  0.261  0.211  0.000
  0.000  0.000  0.000  0.000  0.000  0.239  0.289  0.261  0.211  0.000
  0.000  1.000  0.000  0.000  0.000  0.000  0.000  0.000  0.000  0.000
  0.160  0.000  0.182  0.318  0.340  0.000  0.000  0.000  0.000  0.000
  0.160  0.000  0.182  0.318  0.340  0.000  0.000  0.000  0.000  0.000
  0.340  0.000  0.318  0.182  0.160  0.000  0.000  0.000  0.000  0.000
  0.340  0.000  0.318  0.182  0.160  0.000  0.000  0.000  0.000  0.000
 occupations, | n_(i1, i2)^(sigma1, sigma2) |:
  0.990  0.000  0.000  0.000  0.000  0.000  0.000  0.000  0.000  0.000
  0.000  0.986  0.001  0.004  0.000  0.002  0.006  0.006  0.000  0.000
  0.000  0.001  0.986  0.000  0.004  0.002  0.006  0.006  0.000  0.000
  0.000  0.004  0.000  0.985  0.000  0.002  0.003  0.003  0.003  0.003
  0.000  0.000  0.004  0.000  0.985  0.002  0.003  0.003  0.003  0.003
  0.000  0.002  0.002  0.002  0.002  0.040  0.000  0.000  0.000  0.000
  0.000  0.006  0.006  0.003  0.003  0.000  0.152  0.004  0.081  0.000
  0.000  0.006  0.006  0.003  0.003  0.000  0.004  0.152  0.000  0.081
  0.000  0.000  0.000  0.003  0.003  0.000  0.081  0.000  0.098  0.004
  0.000  0.000  0.000  0.003  0.003  0.000  0.000  0.081  0.004  0.098
atomic mx, my, mz =     0.000000   -0.000000    4.390349
N of occupied +U levels =    5.472302
 --- exit write_ns ---
 --- in v_hubbard ---
Hub. E (dc, noflip, flip, total)    0.0878   0.0911  -0.0000   0.0033
 -------

     total cpu time spent up to now is     1679.7 secs

     total energy              =   -1134.05449553 Ry
     Harris-Foulkes estimate   =   -1134.20534606 Ry
     estimated scf accuracy    <       0.20322764 Ry

     total magnetization       =    -0.00     0.00     4.95 Bohr mag/cell
     absolute magnetization    =     6.20 Bohr mag/cell

     iteration # 16     ecut=   600.00 Ry     beta= 0.40
     Davidson diagonalization with overlap
     c_bands:  2 eigenvalues not converged
     ethr =  2.39E-04,  avg # of iterations =  5.6
 --- enter write_ns ---
 LDA+U parameters:
U(  2) =   0.1000   J(  2) =   0.0000   B(  2) =   0.0000
atom    1   Tr[ns(na)] (up, down, total) =   4.92216  0.66196  5.58412
 eigenvalues: 
  0.043  0.045  0.046  0.263  0.265  0.976  0.976  0.990  0.990  0.990
 eigenvectors:
  0.000  0.000  0.000  0.000  0.000  0.000  0.000  0.000  0.000  1.000
  0.000  0.000  0.000  0.000  0.000  0.240  0.287  0.213  0.260  0.000
  0.000  0.000  0.000  0.000  0.000  0.240  0.287  0.213  0.260  0.000
  0.000  0.000  0.000  0.000  0.000  0.260  0.213  0.287  0.240  0.000
  0.000  0.000  0.000  0.000  0.000  0.260  0.213  0.287  0.240  0.000
  1.000  0.000  0.000  0.000  0.000  0.000  0.000  0.000  0.000  0.000
  0.000  0.179  0.153  0.321  0.347  0.000  0.000  0.000  0.000  0.000
  0.000  0.179  0.153  0.321  0.347  0.000  0.000  0.000  0.000  0.000
  0.000  0.321  0.347  0.179  0.153  0.000  0.000  0.000  0.000  0.000
  0.000  0.321  0.347  0.179  0.153  0.000  0.000  0.000  0.000  0.000
 occupations, | n_(i1, i2)^(sigma1, sigma2) |:
  0.990  0.000  0.000  0.000  0.000  0.000  0.001  0.001  0.000  0.000
  0.000  0.983  0.001  0.007  0.000  0.000  0.005  0.005  0.001  0.001
  0.000  0.001  0.983  0.000  0.007  0.000  0.005  0.005  0.001  0.001
  0.000  0.007  0.000  0.983  0.001  0.001  0.003  0.003  0.001  0.001
  0.000  0.000  0.007  0.001  0.983  0.001  0.003  0.003  0.001  0.001
  0.000  0.000  0.000  0.001  0.001  0.043  0.000  0.000  0.000  0.000
  0.001  0.005  0.005  0.003  0.003  0.000  0.192  0.007  0.103  0.002
  0.001  0.005  0.005  0.003  0.003  0.000  0.007  0.192  0.002  0.103
  0.000  0.001  0.001  0.001  0.001  0.000  0.103  0.002  0.118  0.005
  0.000  0.001  0.001  0.001  0.001  0.000  0.002  0.103  0.005  0.118
atomic mx, my, mz =    -0.000000   -0.000000    4.260207
N of occupied +U levels =    5.584118
 --- exit write_ns ---
 --- in v_hubbard ---
Hub. E (dc, noflip, flip, total)    0.0874   0.0906  -0.0000   0.0032
 -------

     total cpu time spent up to now is     1753.8 secs

     total energy              =   -1134.13369952 Ry
     Harris-Foulkes estimate   =   -1134.12573213 Ry
     estimated scf accuracy    <       0.02560260 Ry

     total magnetization       =    -0.00     0.00     4.93 Bohr mag/cell
     absolute magnetization    =     5.62 Bohr mag/cell

     iteration # 17     ecut=   600.00 Ry     beta= 0.40
     Davidson diagonalization with overlap
     ethr =  3.01E-05,  avg # of iterations = 10.8
 --- enter write_ns ---
 LDA+U parameters:
U(  2) =   0.1000   J(  2) =   0.0000   B(  2) =   0.0000
atom    1   Tr[ns(na)] (up, down, total) =   4.92795  0.68921  5.61717
 eigenvalues: 
  0.048  0.049  0.051  0.268  0.272  0.979  0.979  0.990  0.990  0.990
 eigenvectors:
  0.000  0.000  0.000  0.000  0.000  0.000  0.000  0.000  0.000  1.000
  0.000  0.000  0.000  0.000  0.000  0.286  0.242  0.214  0.257  0.000
  0.000  0.000  0.000  0.000  0.000  0.286  0.242  0.214  0.257  0.000
  0.000  0.000  0.000  0.000  0.000  0.214  0.257  0.286  0.243  0.000
  0.000  0.000  0.000  0.000  0.000  0.214  0.257  0.286  0.243  0.000
  0.000  1.000  0.000  0.000  0.000  0.000  0.000  0.000  0.000  0.000
  0.180  0.000  0.155  0.320  0.345  0.000  0.000  0.000  0.000  0.000
  0.180  0.000  0.155  0.320  0.345  0.000  0.000  0.000  0.000  0.000
  0.320  0.000  0.345  0.180  0.155  0.000  0.000  0.000  0.000  0.000
  0.320  0.000  0.345  0.180  0.155  0.000  0.000  0.000  0.000  0.000
 occupations, | n_(i1, i2)^(sigma1, sigma2) |:
  0.990  0.000  0.000  0.000  0.000  0.000  0.001  0.001  0.000  0.000
  0.000  0.984  0.001  0.006  0.000  0.000  0.005  0.005  0.001  0.001
  0.000  0.001  0.984  0.000  0.006  0.000  0.005  0.005  0.001  0.001
  0.000  0.006  0.000  0.985  0.000  0.001  0.003  0.003  0.001  0.001
  0.000  0.000  0.006  0.000  0.985  0.001  0.003  0.003  0.001  0.001
  0.000  0.000  0.000  0.001  0.001  0.049  0.000  0.000  0.000  0.000
  0.001  0.005  0.005  0.003  0.003  0.000  0.196  0.007  0.104  0.002
  0.001  0.005  0.005  0.003  0.003  0.000  0.007  0.196  0.002  0.104
  0.000  0.001  0.001  0.001  0.001  0.000  0.104  0.002  0.123  0.004
  0.000  0.001  0.001  0.001  0.001  0.000  0.002  0.104  0.004  0.123
atomic mx, my, mz =    -0.000000   -0.000000    4.238738
N of occupied +U levels =    5.617168
 --- exit write_ns ---
 --- in v_hubbard ---
Hub. E (dc, noflip, flip, total)    0.0881   0.0910  -0.0000   0.0029
 -------

     total cpu time spent up to now is     1845.7 secs

     total energy              =   -1134.14687641 Ry
     Harris-Foulkes estimate   =   -1134.13985452 Ry
     estimated scf accuracy    <       0.03165422 Ry

     total magnetization       =    -0.00    -0.00     4.94 Bohr mag/cell
     absolute magnetization    =     5.63 Bohr mag/cell

     iteration # 18     ecut=   600.00 Ry     beta= 0.40
     Davidson diagonalization with overlap
     ethr =  3.01E-05,  avg # of iterations =  2.1
 --- enter write_ns ---
 LDA+U parameters:
U(  2) =   0.1000   J(  2) =   0.0000   B(  2) =   0.0000
atom    1   Tr[ns(na)] (up, down, total) =   4.92619  0.64839  5.57458
 eigenvalues: 
  0.046  0.047  0.049  0.252  0.255  0.978  0.979  0.990  0.990  0.990
 eigenvectors:
  0.000  0.000  0.000  0.000  0.000  0.000  0.000  0.000  0.000  1.000
  0.000  0.000  0.000  0.000  0.000  0.287  0.244  0.213  0.255  0.000
  0.000  0.000  0.000  0.000  0.000  0.287  0.244  0.213  0.255  0.000
  0.000  0.000  0.000  0.000  0.000  0.213  0.255  0.287  0.244  0.000
  0.000  0.000  0.000  0.000  0.000  0.213  0.255  0.287  0.244  0.000
  0.000  1.000  0.000  0.000  0.000  0.000  0.000  0.000  0.000  0.000
  0.182  0.000  0.157  0.317  0.343  0.000  0.000  0.000  0.000  0.000
  0.182  0.000  0.157  0.317  0.343  0.000  0.000  0.000  0.000  0.000
  0.318  0.000  0.343  0.182  0.157  0.000  0.000  0.000  0.000  0.000
  0.318  0.000  0.343  0.182  0.157  0.000  0.000  0.000  0.000  0.000
 occupations, | n_(i1, i2)^(sigma1, sigma2) |:
  0.990  0.000  0.000  0.000  0.000  0.000  0.001  0.001  0.000  0.000
  0.000  0.984  0.001  0.006  0.000  0.000  0.006  0.006  0.001  0.001
  0.000  0.001  0.984  0.000  0.006  0.000  0.006  0.006  0.001  0.001
  0.000  0.006  0.000  0.984  0.000  0.001  0.003  0.003  0.000  0.000
  0.000  0.000  0.006  0.000  0.984  0.001  0.003  0.003  0.000  0.000
  0.000  0.000  0.000  0.001  0.001  0.047  0.000  0.000  0.000  0.000
  0.001  0.006  0.006  0.003  0.003  0.000  0.183  0.007  0.097  0.002
  0.001  0.006  0.006  0.003  0.003  0.000  0.007  0.183  0.002  0.097
  0.000  0.001  0.001  0.000  0.000  0.000  0.097  0.002  0.117  0.004
  0.000  0.001  0.001  0.000  0.000  0.000  0.002  0.097  0.004  0.117
atomic mx, my, mz =    -0.000000   -0.000000    4.277799
N of occupied +U levels =    5.574582
 --- exit write_ns ---
 --- in v_hubbard ---
Hub. E (dc, noflip, flip, total)    0.0894   0.0915  -0.0000   0.0021
 -------

     total cpu time spent up to now is     1908.2 secs

     total energy              =   -1134.16055653 Ry
     Harris-Foulkes estimate   =   -1134.15234894 Ry
     estimated scf accuracy    <       0.01795373 Ry

     total magnetization       =    -0.00    -0.00     4.94 Bohr mag/cell
     absolute magnetization    =     5.73 Bohr mag/cell

     iteration # 19     ecut=   600.00 Ry     beta= 0.40
     Davidson diagonalization with overlap
     ethr =  2.11E-05,  avg # of iterations =  9.3
 --- enter write_ns ---
 LDA+U parameters:
U(  2) =   0.1000   J(  2) =   0.0000   B(  2) =   0.0000
atom    1   Tr[ns(na)] (up, down, total) =   4.91917  0.54549  5.46466
 eigenvalues: 
  0.043  0.043  0.045  0.205  0.210  0.977  0.978  0.988  0.988  0.989
 eigenvectors:
  0.000  0.000  0.000  0.000  0.000  0.000  0.000  0.000  0.000  1.000
  0.000  0.000  0.000  0.000  0.000  0.287  0.241  0.213  0.259  0.000
  0.000  0.000  0.000  0.000  0.000  0.287  0.241  0.213  0.259  0.000
  0.000  0.000  0.000  0.000  0.000  0.213  0.259  0.287  0.241  0.000
  0.000  0.000  0.000  0.000  0.000  0.213  0.259  0.287  0.241  0.000
  1.000  0.000  0.000  0.000  0.000  0.000  0.000  0.000  0.000  0.000
  0.000  0.188  0.167  0.312  0.333  0.000  0.000  0.000  0.000  0.000
  0.000  0.188  0.167  0.312  0.333  0.000  0.000  0.000  0.000  0.000
  0.000  0.312  0.333  0.188  0.167  0.000  0.000  0.000  0.000  0.000
  0.000  0.312  0.333  0.188  0.167  0.000  0.000  0.000  0.000  0.000
 occupations, | n_(i1, i2)^(sigma1, sigma2) |:
  0.989  0.000  0.000  0.000  0.000  0.000  0.002  0.002  0.001  0.001
  0.000  0.982  0.001  0.006  0.000  0.001  0.007  0.007  0.003  0.003
  0.000  0.001  0.982  0.000  0.006  0.001  0.007  0.007  0.003  0.003
  0.000  0.006  0.000  0.983  0.000  0.002  0.004  0.004  0.002  0.002
  0.000  0.000  0.006  0.000  0.983  0.002  0.004  0.004  0.002  0.002
  0.000  0.001  0.001  0.002  0.002  0.043  0.000  0.000  0.000  0.000
  0.002  0.007  0.007  0.004  0.004  0.000  0.149  0.005  0.078  0.000
  0.002  0.007  0.007  0.004  0.004  0.000  0.005  0.149  0.000  0.078
  0.001  0.003  0.003  0.002  0.002  0.000  0.078  0.000  0.102  0.002
  0.001  0.003  0.003  0.002  0.002  0.000  0.000  0.078  0.002  0.102
atomic mx, my, mz =    -0.000000   -0.000000    4.373683
N of occupied +U levels =    5.464664
 --- exit write_ns ---
 --- in v_hubbard ---
Hub. E (dc, noflip, flip, total)    0.0894   0.0915  -0.0000   0.0021
 -------

     total cpu time spent up to now is     2011.2 secs

     total energy              =   -1134.23550243 Ry
     Harris-Foulkes estimate   =   -1134.22509656 Ry
     estimated scf accuracy    <       0.00565997 Ry

     total magnetization       =    -0.00    -0.00     4.92 Bohr mag/cell
     absolute magnetization    =     6.53 Bohr mag/cell

     iteration # 20     ecut=   600.00 Ry     beta= 0.40
     Davidson diagonalization with overlap
     ethr =  6.66E-06,  avg # of iterations =  2.5
 --- enter write_ns ---
 LDA+U parameters:
U(  2) =   0.1000   J(  2) =   0.0000   B(  2) =   0.0000
atom    1   Tr[ns(na)] (up, down, total) =   4.91975  0.55080  5.47055
 eigenvalues: 
  0.044  0.044  0.046  0.205  0.211  0.977  0.978  0.988  0.988  0.989
 eigenvectors:
  0.000  0.000  0.000  0.000  0.000  0.000  0.000  0.000  0.000  1.000
  0.000  0.000  0.000  0.000  0.000  0.286  0.239  0.214  0.260  0.000
  0.000  0.000  0.000  0.000  0.000  0.286  0.239  0.214  0.260  0.000
  0.000  0.000  0.000  0.000  0.000  0.214  0.260  0.286  0.240  0.000
  0.000  0.000  0.000  0.000  0.000  0.214  0.260  0.286  0.240  0.000
  1.000  0.000  0.000  0.000  0.000  0.000  0.000  0.000  0.000  0.000
  0.000  0.188  0.169  0.311  0.331  0.000  0.000  0.000  0.000  0.000
  0.000  0.188  0.169  0.311  0.331  0.000  0.000  0.000  0.000  0.000
  0.000  0.312  0.331  0.188  0.169  0.000  0.000  0.000  0.000  0.000
  0.000  0.312  0.331  0.188  0.169  0.000  0.000  0.000  0.000  0.000
 occupations, | n_(i1, i2)^(sigma1, sigma2) |:
  0.989  0.000  0.000  0.000  0.000  0.000  0.002  0.002  0.001  0.001
  0.000  0.982  0.001  0.006  0.000  0.001  0.007  0.007  0.003  0.003
  0.000  0.001  0.982  0.000  0.006  0.001  0.007  0.007  0.003  0.003
  0.000  0.006  0.000  0.983  0.000  0.002  0.004  0.004  0.002  0.002
  0.000  0.000  0.006  0.000  0.983  0.002  0.004  0.004  0.002  0.002
  0.000  0.001  0.001  0.002  0.002  0.044  0.000  0.000  0.000  0.000
  0.002  0.007  0.007  0.004  0.004  0.000  0.150  0.005  0.078  0.000
  0.002  0.007  0.007  0.004  0.004  0.000  0.005  0.150  0.000  0.078
  0.001  0.003  0.003  0.002  0.002  0.000  0.078  0.000  0.103  0.002
  0.001  0.003  0.003  0.002  0.002  0.000  0.000  0.078  0.002  0.103
atomic mx, my, mz =    -0.000000   -0.000000    4.368943
N of occupied +U levels =    5.470548
 --- exit write_ns ---

     negative rho (up, down):  9.212E-05 2.468E-03
 --- in v_hubbard ---
Hub. E (dc, noflip, flip, total)    0.0895   0.0916  -0.0000   0.0021
 -------

     total cpu time spent up to now is     2076.7 secs

     total energy              =   -1134.23935220 Ry
     Harris-Foulkes estimate   =   -1134.23734277 Ry
     estimated scf accuracy    <       0.00628863 Ry

     total magnetization       =    -0.00     0.00     4.92 Bohr mag/cell
     absolute magnetization    =     6.61 Bohr mag/cell

     iteration # 21     ecut=   600.00 Ry     beta= 0.40
     Davidson diagonalization with overlap
     ethr =  6.66E-06,  avg # of iterations =  8.6
 --- enter write_ns ---
 LDA+U parameters:
U(  2) =   0.1000   J(  2) =   0.0000   B(  2) =   0.0000
atom    1   Tr[ns(na)] (up, down, total) =   4.92110  0.56485  5.48596
 eigenvalues: 
  0.047  0.047  0.049  0.208  0.213  0.978  0.979  0.988  0.988  0.989
 eigenvectors:
  0.000  0.000  0.000  0.000  0.000  0.000  0.000  0.000  0.000  1.000
  0.000  0.000  0.000  0.000  0.000  0.282  0.235  0.218  0.264  0.000
  0.000  0.000  0.000  0.000  0.000  0.282  0.235  0.218  0.264  0.000
  0.000  0.000  0.000  0.000  0.000  0.218  0.264  0.282  0.236  0.000
  0.000  0.000  0.000  0.000  0.000  0.218  0.264  0.282  0.236  0.000
  1.000  0.000  0.000  0.000  0.000  0.000  0.000  0.000  0.000  0.000
  0.000  0.188  0.173  0.311  0.327  0.000  0.000  0.000  0.000  0.000
  0.000  0.188  0.173  0.311  0.327  0.000  0.000  0.000  0.000  0.000
  0.000  0.312  0.327  0.188  0.173  0.000  0.000  0.000  0.000  0.000
  0.000  0.312  0.327  0.188  0.173  0.000  0.000  0.000  0.000  0.000
 occupations, | n_(i1, i2)^(sigma1, sigma2) |:
  0.989  0.000  0.000  0.000  0.000  0.000  0.001  0.001  0.001  0.001
  0.000  0.983  0.001  0.005  0.000  0.000  0.008  0.008  0.003  0.003
  0.000  0.001  0.983  0.000  0.005  0.000  0.008  0.008  0.003  0.003
  0.000  0.005  0.000  0.983  0.000  0.002  0.004  0.004  0.002  0.002
  0.000  0.000  0.005  0.000  0.983  0.002  0.004  0.004  0.002  0.002
  0.000  0.000  0.000  0.002  0.002  0.047  0.000  0.000  0.000  0.000
  0.001  0.008  0.008  0.004  0.004  0.000  0.152  0.004  0.078  0.000
  0.001  0.008  0.008  0.004  0.004  0.000  0.004  0.152  0.000  0.078
  0.001  0.003  0.003  0.002  0.002  0.000  0.078  0.000  0.107  0.001
  0.001  0.003  0.003  0.002  0.002  0.000  0.000  0.078  0.001  0.107
atomic mx, my, mz =    -0.000000   -0.000000    4.356250
N of occupied +U levels =    5.485957
 --- exit write_ns ---

     negative rho (up, down):  5.356E-04 2.430E-03
 --- in v_hubbard ---
Hub. E (dc, noflip, flip, total)    0.0896   0.0917  -0.0000   0.0021
 -------

     total cpu time spent up to now is     2176.1 secs

     total energy              =   -1134.25507020 Ry
     Harris-Foulkes estimate   =   -1134.26052891 Ry
     estimated scf accuracy    <       0.00539217 Ry

     total magnetization       =     0.00     0.00     4.89 Bohr mag/cell
     absolute magnetization    =     6.88 Bohr mag/cell

     iteration # 22     ecut=   600.00 Ry     beta= 0.40
     Davidson diagonalization with overlap
     ethr =  6.34E-06,  avg # of iterations =  2.0
 --- enter write_ns ---
 LDA+U parameters:
U(  2) =   0.1000   J(  2) =   0.0000   B(  2) =   0.0000
atom    1   Tr[ns(na)] (up, down, total) =   4.91799  0.55002  5.46801
 eigenvalues: 
  0.045  0.046  0.048  0.203  0.208  0.976  0.978  0.988  0.988  0.988
 eigenvectors:
  0.000  0.000  0.000  0.000  0.000  0.000  0.000  0.000  0.000  1.000
  0.000  0.000  0.000  0.000  0.000  0.285  0.238  0.215  0.262  0.000
  0.000  0.000  0.000  0.000  0.000  0.285  0.238  0.215  0.262  0.000
  0.000  0.000  0.000  0.000  0.000  0.215  0.262  0.285  0.238  0.000
  0.000  0.000  0.000  0.000  0.000  0.215  0.262  0.285  0.238  0.000
  1.000  0.000  0.000  0.000  0.000  0.000  0.000  0.000  0.000  0.000
  0.000  0.188  0.172  0.312  0.328  0.000  0.000  0.000  0.000  0.000
  0.000  0.188  0.172  0.312  0.328  0.000  0.000  0.000  0.000  0.000
  0.000  0.312  0.328  0.188  0.172  0.000  0.000  0.000  0.000  0.000
  0.000  0.312  0.328  0.188  0.172  0.000  0.000  0.000  0.000  0.000
 occupations, | n_(i1, i2)^(sigma1, sigma2) |:
  0.988  0.000  0.000  0.000  0.000  0.000  0.001  0.001  0.001  0.001
  0.000  0.982  0.001  0.006  0.000  0.000  0.008  0.008  0.003  0.003
  0.000  0.001  0.982  0.000  0.006  0.000  0.008  0.008  0.003  0.003
  0.000  0.006  0.000  0.983  0.000  0.002  0.004  0.004  0.002  0.002
  0.000  0.000  0.006  0.000  0.983  0.002  0.004  0.004  0.002  0.002
  0.000  0.000  0.000  0.002  0.002  0.045  0.000  0.000  0.000  0.000
  0.001  0.008  0.008  0.004  0.004  0.000  0.149  0.004  0.076  0.000
  0.001  0.008  0.008  0.004  0.004  0.000  0.004  0.149  0.000  0.076
  0.001  0.003  0.003  0.002  0.002  0.000  0.076  0.000  0.104  0.001
  0.001  0.003  0.003  0.002  0.002  0.000  0.000  0.076  0.001  0.104
atomic mx, my, mz =    -0.000000   -0.000000    4.367969
N of occupied +U levels =    5.468014
 --- exit write_ns ---

     negative rho (up, down):  1.364E-03 2.246E-03
 --- in v_hubbard ---
Hub. E (dc, noflip, flip, total)    0.0897   0.0917  -0.0000   0.0020
 -------

     total cpu time spent up to now is     2243.8 secs

     total energy              =   -1134.25218594 Ry
     Harris-Foulkes estimate   =   -1134.25960741 Ry
     estimated scf accuracy    <       0.00073069 Ry

     total magnetization       =     0.00     0.00     4.89 Bohr mag/cell
     absolute magnetization    =     6.90 Bohr mag/cell

     iteration # 23     ecut=   600.00 Ry     beta= 0.40
     Davidson diagonalization with overlap
     c_bands:  1 eigenvalues not converged
     c_bands:  1 eigenvalues not converged
     c_bands:  1 eigenvalues not converged
     ethr =  8.60E-07,  avg # of iterations = 12.2
 --- enter write_ns ---
 LDA+U parameters:
U(  2) =   0.1000   J(  2) =   0.0000   B(  2) =   0.0000
atom    1   Tr[ns(na)] (up, down, total) =   4.91903  0.54056  5.45960
 eigenvalues: 
  0.045  0.046  0.048  0.199  0.203  0.977  0.978  0.988  0.988  0.988
 eigenvectors:
  0.000  0.000  0.000  0.000  0.000  0.000  0.000  0.000  0.000  1.000
  0.000  0.000  0.000  0.000  0.000  0.283  0.238  0.217  0.262  0.000
  0.000  0.000  0.000  0.000  0.000  0.283  0.238  0.217  0.262  0.000
  0.000  0.000  0.000  0.000  0.000  0.217  0.262  0.283  0.238  0.000
  0.000  0.000  0.000  0.000  0.000  0.217  0.262  0.283  0.238  0.000
  1.000  0.000  0.000  0.000  0.000  0.000  0.000  0.000  0.000  0.000
  0.000  0.188  0.175  0.312  0.325  0.000  0.000  0.000  0.000  0.000
  0.000  0.188  0.175  0.312  0.325  0.000  0.000  0.000  0.000  0.000
  0.000  0.312  0.325  0.188  0.175  0.000  0.000  0.000  0.000  0.000
  0.000  0.312  0.325  0.188  0.175  0.000  0.000  0.000  0.000  0.000
 occupations, | n_(i1, i2)^(sigma1, sigma2) |:
  0.988  0.000  0.000  0.000  0.000  0.000  0.000  0.000  0.001  0.001
  0.000  0.982  0.001  0.006  0.000  0.001  0.008  0.008  0.003  0.003
  0.000  0.001  0.982  0.000  0.006  0.001  0.008  0.008  0.003  0.003
  0.000  0.006  0.000  0.983  0.000  0.002  0.004  0.004  0.001  0.001
  0.000  0.000  0.006  0.000  0.983  0.002  0.004  0.004  0.001  0.001
  0.000  0.001  0.001  0.002  0.002  0.045  0.000  0.000  0.000  0.000
  0.000  0.008  0.008  0.004  0.004  0.000  0.145  0.003  0.074  0.000
  0.000  0.008  0.008  0.004  0.004  0.000  0.003  0.145  0.000  0.074
  0.001  0.003  0.003  0.001  0.001  0.000  0.074  0.000  0.103  0.001
  0.001  0.003  0.003  0.001  0.001  0.000  0.000  0.074  0.001  0.103
atomic mx, my, mz =    -0.000000   -0.000000    4.378470
N of occupied +U levels =    5.459598
 --- exit write_ns ---

     negative rho (up, down):  4.039E-04 2.020E-03
 --- in v_hubbard ---
Hub. E (dc, noflip, flip, total)    0.0896   0.0916  -0.0000   0.0020
 -------

     total cpu time spent up to now is     2375.6 secs

     total energy              =   -1134.28328085 Ry
     Harris-Foulkes estimate   =   -1134.27906385 Ry
     estimated scf accuracy    <       0.00070265 Ry

     total magnetization       =     0.00     0.00     4.88 Bohr mag/cell
     absolute magnetization    =     7.25 Bohr mag/cell

     iteration # 24     ecut=   600.00 Ry     beta= 0.40
     Davidson diagonalization with overlap
     ethr =  8.27E-07,  avg # of iterations =  5.5
 --- enter write_ns ---
 LDA+U parameters:
U(  2) =   0.1000   J(  2) =   0.0000   B(  2) =   0.0000
atom    1   Tr[ns(na)] (up, down, total) =   4.91883  0.54020  5.45902
 eigenvalues: 
  0.045  0.046  0.048  0.198  0.203  0.977  0.978  0.988  0.988  0.988
 eigenvectors:
  0.000  0.000  0.000  0.000  0.000  0.000  0.000  0.000  0.000  1.000
  0.000  0.000  0.000  0.000  0.000  0.284  0.238  0.216  0.262  0.000
  0.000  0.000  0.000  0.000  0.000  0.284  0.238  0.216  0.262  0.000
  0.000  0.000  0.000  0.000  0.000  0.216  0.262  0.284  0.238  0.000
  0.000  0.000  0.000  0.000  0.000  0.216  0.262  0.284  0.238  0.000
  1.000  0.000  0.000  0.000  0.000  0.000  0.000  0.000  0.000  0.000
  0.000  0.188  0.174  0.312  0.326  0.000  0.000  0.000  0.000  0.000
  0.000  0.188  0.174  0.312  0.326  0.000  0.000  0.000  0.000  0.000
  0.000  0.312  0.326  0.188  0.174  0.000  0.000  0.000  0.000  0.000
  0.000  0.312  0.326  0.188  0.174  0.000  0.000  0.000  0.000  0.000
 occupations, | n_(i1, i2)^(sigma1, sigma2) |:
  0.988  0.000  0.000  0.000  0.000  0.000  0.000  0.000  0.001  0.001
  0.000  0.982  0.001  0.006  0.000  0.001  0.008  0.008  0.003  0.003
  0.000  0.001  0.982  0.000  0.006  0.001  0.008  0.008  0.003  0.003
  0.000  0.006  0.000  0.983  0.000  0.002  0.004  0.004  0.001  0.001
  0.000  0.000  0.006  0.000  0.983  0.002  0.004  0.004  0.001  0.001
  0.000  0.001  0.001  0.002  0.002  0.045  0.000  0.000  0.000  0.000
  0.000  0.008  0.008  0.004  0.004  0.000  0.145  0.004  0.074  0.000
  0.000  0.008  0.008  0.004  0.004  0.000  0.004  0.145  0.000  0.074
  0.001  0.003  0.003  0.001  0.001  0.000  0.074  0.000  0.102  0.001
  0.001  0.003  0.003  0.001  0.001  0.000  0.000  0.074  0.001  0.102
atomic mx, my, mz =    -0.000000   -0.000000    4.378631
N of occupied +U levels =    5.459022
 --- exit write_ns ---

     negative rho (up, down):  3.702E-04 2.053E-03
[...]
     estimated scf accuracy    <       0.00001897 Ry

     total magnetization       =     0.00    -0.00     4.87 Bohr mag/cell
     absolute magnetization    =     7.35 Bohr mag/cell

     iteration #379     ecut=   600.00 Ry     beta= 0.40
     Davidson diagonalization with overlap
     ethr =  6.81E-09,  avg # of iterations =  6.0
 --- enter write_ns ---
 LDA+U parameters:
U(  2) =   0.1000   J(  2) =   0.0000   B(  2) =   0.0000
atom    1   Tr[ns(na)] (up, down, total) =   4.92014  0.54049  5.46062
 eigenvalues: 
  0.047  0.048  0.049  0.196  0.201  0.977  0.978  0.988  0.989  0.989
 eigenvectors:
  0.000  0.000  0.000  0.000  0.000  0.000  0.000  0.000  0.000  1.000
  0.000  0.000  0.000  0.000  0.000  0.278  0.236  0.222  0.264  0.000
  0.000  0.000  0.000  0.000  0.000  0.278  0.236  0.222  0.264  0.000
  0.000  0.000  0.000  0.000  0.000  0.222  0.264  0.278  0.236  0.000
  0.000  0.000  0.000  0.000  0.000  0.222  0.264  0.278  0.236  0.000
  0.000  0.000  1.000  0.000  0.000  0.000  0.000  0.000  0.000  0.000
  0.190  0.179  0.000  0.309  0.321  0.000  0.000  0.000  0.000  0.000
  0.190  0.179  0.000  0.309  0.321  0.000  0.000  0.000  0.000  0.000
  0.310  0.321  0.000  0.190  0.179  0.000  0.000  0.000  0.000  0.000
  0.310  0.321  0.000  0.190  0.179  0.000  0.000  0.000  0.000  0.000
 occupations, | n_(i1, i2)^(sigma1, sigma2) |:
  0.989  0.000  0.000  0.000  0.000  0.000  0.002  0.002  0.002  0.002
  0.000  0.983  0.001  0.005  0.000  0.003  0.009  0.009  0.002  0.002
  0.000  0.001  0.983  0.000  0.005  0.003  0.009  0.009  0.002  0.002
  0.000  0.005  0.000  0.983  0.000  0.003  0.003  0.003  0.000  0.000
  0.000  0.000  0.005  0.000  0.983  0.003  0.003  0.003  0.000  0.000
  0.000  0.003  0.003  0.003  0.003  0.049  0.000  0.000  0.000  0.000
  0.002  0.009  0.009  0.003  0.003  0.000  0.143  0.003  0.073  0.000
  0.002  0.009  0.009  0.003  0.003  0.000  0.003  0.143  0.000  0.073
  0.002  0.002  0.002  0.000  0.000  0.000  0.073  0.000  0.103  0.001
  0.002  0.002  0.002  0.000  0.000  0.000  0.000  0.073  0.001  0.103
atomic mx, my, mz =    -0.000000   -0.000000    4.379651
N of occupied +U levels =    5.460625
 --- exit write_ns ---
 --- in v_hubbard ---
Hub. E (dc, noflip, flip, total)    0.0895   0.0915  -0.0000   0.0020
 -------

     total cpu time spent up to now is    42485.1 secs

     total energy              =   -1134.28354425 Ry
     Harris-Foulkes estimate   =   -1134.28374095 Ry
     estimated scf accuracy    <       0.00001590 Ry

     total magnetization       =     0.00     0.00     4.87 Bohr mag/cell
     absolute magnetization    =     7.35 Bohr mag/cell

     iteration #380     ecut=   600.00 Ry     beta= 0.40
     Davidson diagonalization with overlap
     ethr =  6.81E-09,  avg # of iterations =  5.3
 --- enter write_ns ---
 LDA+U parameters:
U(  2) =   0.1000   J(  2) =   0.0000   B(  2) =   0.0000
atom    1   Tr[ns(na)] (up, down, total) =   4.92013  0.54041  5.46054
 eigenvalues: 
  0.047  0.048  0.049  0.196  0.201  0.977  0.978  0.988  0.989  0.989
 eigenvectors:
  0.000  0.000  0.000  0.000  0.000  0.000  0.000  0.000  0.000  1.000
  0.000  0.000  0.000  0.000  0.000  0.278  0.236  0.222  0.264  0.000
  0.000  0.000  0.000  0.000  0.000  0.278  0.236  0.222  0.264  0.000
  0.000  0.000  0.000  0.000  0.000  0.222  0.264  0.278  0.236  0.000
  0.000  0.000  0.000  0.000  0.000  0.222  0.264  0.278  0.236  0.000
  0.000  0.000  1.000  0.000  0.000  0.000  0.000  0.000  0.000  0.000
  0.190  0.178  0.000  0.309  0.322  0.000  0.000  0.000  0.000  0.000
  0.190  0.178  0.000  0.309  0.322  0.000  0.000  0.000  0.000  0.000
  0.310  0.322  0.000  0.190  0.178  0.000  0.000  0.000  0.000  0.000
  0.310  0.322  0.000  0.190  0.178  0.000  0.000  0.000  0.000  0.000
 occupations, | n_(i1, i2)^(sigma1, sigma2) |:
  0.989  0.000  0.000  0.000  0.000  0.000  0.002  0.002  0.002  0.002
  0.000  0.983  0.001  0.005  0.000  0.003  0.009  0.009  0.002  0.002
  0.000  0.001  0.983  0.000  0.005  0.003  0.009  0.009  0.002  0.002
  0.000  0.005  0.000  0.983  0.000  0.003  0.003  0.003  0.000  0.000
  0.000  0.000  0.005  0.000  0.983  0.003  0.003  0.003  0.000  0.000
  0.000  0.003  0.003  0.003  0.003  0.049  0.000  0.000  0.000  0.000
  0.002  0.009  0.009  0.003  0.003  0.000  0.143  0.003  0.073  0.000
  0.002  0.009  0.009  0.003  0.003  0.000  0.003  0.143  0.000  0.073
  0.002  0.002  0.002  0.000  0.000  0.000  0.073  0.000  0.103  0.001
  0.002  0.002  0.002  0.000  0.000  0.000  0.000  0.073  0.001  0.103
atomic mx, my, mz =    -0.000000   -0.000000    4.379717
N of occupied +U levels =    5.460540
 --- exit write_ns ---
 --- in v_hubbard ---
Hub. E (dc, noflip, flip, total)    0.0895   0.0915  -0.0000   0.0020
 -------

     total cpu time spent up to now is    42601.3 secs

     total energy              =   -1134.28355517 Ry
     Harris-Foulkes estimate   =   -1134.28383150 Ry
     estimated scf accuracy    <       0.00002645 Ry

     total magnetization       =     0.00     0.00     4.87 Bohr mag/cell
     absolute magnetization    =     7.36 Bohr mag/cell

     iteration #381     ecut=   600.00 Ry     beta= 0.40
     Davidson diagonalization with overlap
     ethr =  6.81E-09,  avg # of iterations =  5.0
 --- enter write_ns ---
 LDA+U parameters:
U(  2) =   0.1000   J(  2) =   0.0000   B(  2) =   0.0000
atom    1   Tr[ns(na)] (up, down, total) =   4.92013  0.54041  5.46054
 eigenvalues: 
  0.047  0.048  0.049  0.196  0.201  0.977  0.978  0.988  0.989  0.989
 eigenvectors:
  0.000  0.000  0.000  0.000  0.000  0.000  0.000  0.000  0.000  1.000
  0.000  0.000  0.000  0.000  0.000  0.278  0.236  0.222  0.264  0.000
  0.000  0.000  0.000  0.000  0.000  0.278  0.236  0.222  0.264  0.000
  0.000  0.000  0.000  0.000  0.000  0.222  0.264  0.278  0.236  0.000
  0.000  0.000  0.000  0.000  0.000  0.222  0.264  0.278  0.236  0.000
  0.000  0.000  1.000  0.000  0.000  0.000  0.000  0.000  0.000  0.000
  0.190  0.179  0.000  0.309  0.321  0.000  0.000  0.000  0.000  0.000
  0.190  0.179  0.000  0.309  0.321  0.000  0.000  0.000  0.000  0.000
  0.310  0.321  0.000  0.190  0.179  0.000  0.000  0.000  0.000  0.000
  0.310  0.321  0.000  0.190  0.179  0.000  0.000  0.000  0.000  0.000
 occupations, | n_(i1, i2)^(sigma1, sigma2) |:
  0.989  0.000  0.000  0.000  0.000  0.000  0.002  0.002  0.002  0.002
  0.000  0.983  0.001  0.005  0.000  0.003  0.009  0.009  0.002  0.002
  0.000  0.001  0.983  0.000  0.005  0.003  0.009  0.009  0.002  0.002
  0.000  0.005  0.000  0.983  0.000  0.003  0.003  0.003  0.000  0.000
  0.000  0.000  0.005  0.000  0.983  0.003  0.003  0.003  0.000  0.000
  0.000  0.003  0.003  0.003  0.003  0.049  0.000  0.000  0.000  0.000
  0.002  0.009  0.009  0.003  0.003  0.000  0.143  0.003  0.073  0.000
  0.002  0.009  0.009  0.003  0.003  0.000  0.003  0.143  0.000  0.073
  0.002  0.002  0.002  0.000  0.000  0.000  0.073  0.000  0.103  0.001
  0.002  0.002  0.002  0.000  0.000  0.000  0.000  0.073  0.001  0.103
atomic mx, my, mz =    -0.000000   -0.000000    4.379720
N of occupied +U levels =    5.460541
 --- exit write_ns ---
 --- in v_hubbard ---
Hub. E (dc, noflip, flip, total)    0.0895   0.0915  -0.0000   0.0020
 -------

     total cpu time spent up to now is    42705.1 secs

     total energy              =   -1134.28347508 Ry
     Harris-Foulkes estimate   =   -1134.28367565 Ry
     estimated scf accuracy    <       0.00001405 Ry

     total magnetization       =     0.00     0.00     4.87 Bohr mag/cell
     absolute magnetization    =     7.35 Bohr mag/cell

     iteration #382     ecut=   600.00 Ry     beta= 0.40
     Davidson diagonalization with overlap
     ethr =  6.81E-09,  avg # of iterations =  5.9
 --- enter write_ns ---
 LDA+U parameters:
U(  2) =   0.1000   J(  2) =   0.0000   B(  2) =   0.0000
atom    1   Tr[ns(na)] (up, down, total) =   4.92005  0.53995  5.46000
 eigenvalues: 
  0.047  0.048  0.049  0.195  0.200  0.977  0.978  0.988  0.989  0.989
 eigenvectors:
  0.000  0.000  0.000  0.000  0.000  0.000  0.000  0.000  0.000  1.000
  0.000  0.000  0.000  0.000  0.000  0.278  0.236  0.222  0.264  0.000
  0.000  0.000  0.000  0.000  0.000  0.278  0.236  0.222  0.264  0.000
  0.000  0.000  0.000  0.000  0.000  0.222  0.264  0.278  0.236  0.000
  0.000  0.000  0.000  0.000  0.000  0.222  0.264  0.278  0.236  0.000
  0.000  0.000  1.000  0.000  0.000  0.000  0.000  0.000  0.000  0.000
  0.190  0.178  0.000  0.309  0.322  0.000  0.000  0.000  0.000  0.000
  0.190  0.178  0.000  0.309  0.322  0.000  0.000  0.000  0.000  0.000
  0.310  0.322  0.000  0.190  0.178  0.000  0.000  0.000  0.000  0.000
  0.310  0.322  0.000  0.190  0.178  0.000  0.000  0.000  0.000  0.000
 occupations, | n_(i1, i2)^(sigma1, sigma2) |:
  0.989  0.000  0.000  0.000  0.000  0.000  0.002  0.002  0.002  0.002
  0.000  0.983  0.001  0.005  0.000  0.003  0.009  0.009  0.002  0.002
  0.000  0.001  0.983  0.000  0.005  0.003  0.009  0.009  0.002  0.002
  0.000  0.005  0.000  0.983  0.000  0.003  0.003  0.003  0.000  0.000
  0.000  0.000  0.005  0.000  0.983  0.003  0.003  0.003  0.000  0.000
  0.000  0.003  0.003  0.003  0.003  0.049  0.000  0.000  0.000  0.000
  0.002  0.009  0.009  0.003  0.003  0.000  0.143  0.003  0.073  0.000
  0.002  0.009  0.009  0.003  0.003  0.000  0.003  0.143  0.000  0.073
  0.002  0.002  0.002  0.000  0.000  0.000  0.073  0.000  0.103  0.001
  0.002  0.002  0.002  0.000  0.000  0.000  0.000  0.073  0.001  0.103
atomic mx, my, mz =    -0.000000   -0.000000    4.380099
N of occupied +U levels =    5.459998
 --- exit write_ns ---
 --- in v_hubbard ---
Hub. E (dc, noflip, flip, total)    0.0895   0.0915  -0.0000   0.0020
 -------

     total cpu time spent up to now is    42821.7 secs

     total energy              =   -1134.28344624 Ry
     Harris-Foulkes estimate   =   -1134.28371328 Ry
     estimated scf accuracy    <       0.00001450 Ry

     total magnetization       =     0.00     0.00     4.87 Bohr mag/cell
     absolute magnetization    =     7.35 Bohr mag/cell

     iteration #383     ecut=   600.00 Ry     beta= 0.40
     Davidson diagonalization with overlap
     ethr =  6.81E-09,  avg # of iterations =  5.0
 --- enter write_ns ---
 LDA+U parameters:
U(  2) =   0.1000   J(  2) =   0.0000   B(  2) =   0.0000
atom    1   Tr[ns(na)] (up, down, total) =   4.92011  0.54035  5.46045
 eigenvalues: 
  0.047  0.048  0.049  0.196  0.201  0.977  0.978  0.988  0.989  0.989
 eigenvectors:
  0.000  0.000  0.000  0.000  0.000  0.000  0.000  0.000  0.000  1.000
  0.000  0.000  0.000  0.000  0.000  0.278  0.236  0.222  0.264  0.000
  0.000  0.000  0.000  0.000  0.000  0.278  0.236  0.222  0.264  0.000
  0.000  0.000  0.000  0.000  0.000  0.222  0.264  0.278  0.236  0.000
  0.000  0.000  0.000  0.000  0.000  0.222  0.264  0.278  0.236  0.000
  0.000  0.000  1.000  0.000  0.000  0.000  0.000  0.000  0.000  0.000
  0.190  0.178  0.000  0.309  0.322  0.000  0.000  0.000  0.000  0.000
  0.190  0.178  0.000  0.309  0.322  0.000  0.000  0.000  0.000  0.000
  0.310  0.322  0.000  0.190  0.178  0.000  0.000  0.000  0.000  0.000
  0.310  0.322  0.000  0.190  0.178  0.000  0.000  0.000  0.000  0.000
 occupations, | n_(i1, i2)^(sigma1, sigma2) |:
  0.989  0.000  0.000  0.000  0.000  0.000  0.002  0.002  0.002  0.002
  0.000  0.983  0.001  0.005  0.000  0.003  0.009  0.009  0.002  0.002
  0.000  0.001  0.983  0.000  0.005  0.003  0.009  0.009  0.002  0.002
  0.000  0.005  0.000  0.983  0.000  0.003  0.003  0.003  0.000  0.000
  0.000  0.000  0.005  0.000  0.983  0.003  0.003  0.003  0.000  0.000
  0.000  0.003  0.003  0.003  0.003  0.049  0.000  0.000  0.000  0.000
  0.002  0.009  0.009  0.003  0.003  0.000  0.143  0.003  0.073  0.000
  0.002  0.009  0.009  0.003  0.003  0.000  0.003  0.143  0.000  0.073
  0.002  0.002  0.002  0.000  0.000  0.000  0.073  0.000  0.103  0.001
  0.002  0.002  0.002  0.000  0.000  0.000  0.000  0.073  0.001  0.103
atomic mx, my, mz =    -0.000000   -0.000000    4.379761
N of occupied +U levels =    5.460455
 --- exit write_ns ---
 --- in v_hubbard ---
Hub. E (dc, noflip, flip, total)    0.0895   0.0915  -0.0000   0.0020
 -------

     total cpu time spent up to now is    42922.9 secs

     total energy              =   -1134.28359350 Ry
     Harris-Foulkes estimate   =   -1134.28354436 Ry
     estimated scf accuracy    <       0.00001103 Ry

     total magnetization       =     0.00    -0.00     4.87 Bohr mag/cell
     absolute magnetization    =     7.35 Bohr mag/cell

     iteration #384     ecut=   600.00 Ry     beta= 0.40
     Davidson diagonalization with overlap
     ethr =  6.81E-09,  avg # of iterations =  5.8
 --- enter write_ns ---
 LDA+U parameters:
U(  2) =   0.1000   J(  2) =   0.0000   B(  2) =   0.0000
atom    1   Tr[ns(na)] (up, down, total) =   4.92012  0.54035  5.46047
 eigenvalues: 
  0.047  0.048  0.049  0.196  0.201  0.977  0.978  0.988  0.989  0.989
 eigenvectors:
  0.000  0.000  0.000  0.000  0.000  0.000  0.000  0.000  0.000  1.000
  0.000  0.000  0.000  0.000  0.000  0.278  0.236  0.222  0.264  0.000
  0.000  0.000  0.000  0.000  0.000  0.278  0.236  0.222  0.264  0.000
  0.000  0.000  0.000  0.000  0.000  0.222  0.264  0.278  0.236  0.000
  0.000  0.000  0.000  0.000  0.000  0.222  0.264  0.278  0.236  0.000
  0.000  0.000  1.000  0.000  0.000  0.000  0.000  0.000  0.000  0.000
  0.190  0.178  0.000  0.309  0.322  0.000  0.000  0.000  0.000  0.000
  0.190  0.178  0.000  0.309  0.322  0.000  0.000  0.000  0.000  0.000
  0.309  0.322  0.000  0.190  0.178  0.000  0.000  0.000  0.000  0.000
  0.309  0.322  0.000  0.190  0.178  0.000  0.000  0.000  0.000  0.000
 occupations, | n_(i1, i2)^(sigma1, sigma2) |:
  0.989  0.000  0.000  0.000  0.000  0.000  0.002  0.002  0.002  0.002
  0.000  0.983  0.001  0.005  0.000  0.003  0.009  0.009  0.002  0.002
  0.000  0.001  0.983  0.000  0.005  0.003  0.009  0.009  0.002  0.002
  0.000  0.005  0.000  0.983  0.000  0.003  0.003  0.003  0.000  0.000
  0.000  0.000  0.005  0.000  0.983  0.003  0.003  0.003  0.000  0.000
  0.000  0.003  0.003  0.003  0.003  0.049  0.000  0.000  0.000  0.000
  0.002  0.009  0.009  0.003  0.003  0.000  0.143  0.003  0.073  0.000
  0.002  0.009  0.009  0.003  0.003  0.000  0.003  0.143  0.000  0.073
  0.002  0.002  0.002  0.000  0.000  0.000  0.073  0.000  0.103  0.001
  0.002  0.002  0.002  0.000  0.000  0.000  0.000  0.073  0.001  0.103
atomic mx, my, mz =    -0.000000   -0.000000    4.379765
N of occupied +U levels =    5.460472
 --- exit write_ns ---
 --- in v_hubbard ---
Hub. E (dc, noflip, flip, total)    0.0895   0.0915  -0.0000   0.0020
 -------

     total cpu time spent up to now is    43038.5 secs

     total energy              =   -1134.28285633 Ry
     Harris-Foulkes estimate   =   -1134.28383592 Ry
     estimated scf accuracy    <       0.00001344 Ry

     total magnetization       =     0.00    -0.00     4.87 Bohr mag/cell
     absolute magnetization    =     7.35 Bohr mag/cell

     iteration #385     ecut=   600.00 Ry     beta= 0.40
     Davidson diagonalization with overlap
     ethr =  6.81E-09,  avg # of iterations =  6.0
 --- enter write_ns ---
 LDA+U parameters:
U(  2) =   0.1000   J(  2) =   0.0000   B(  2) =   0.0000
atom    1   Tr[ns(na)] (up, down, total) =   4.92016  0.54055  5.46071
 eigenvalues: 
  0.047  0.048  0.049  0.196  0.201  0.977  0.978  0.988  0.989  0.989
 eigenvectors:
  0.000  0.000  0.000  0.000  0.000  0.000  0.000  0.000  0.000  1.000
  0.000  0.000  0.000  0.000  0.000  0.278  0.236  0.222  0.264  0.000
  0.000  0.000  0.000  0.000  0.000  0.278  0.236  0.222  0.264  0.000
  0.000  0.000  0.000  0.000  0.000  0.222  0.264  0.278  0.236  0.000
  0.000  0.000  0.000  0.000  0.000  0.222  0.264  0.278  0.236  0.000
  0.000  0.000  1.000  0.000  0.000  0.000  0.000  0.000  0.000  0.000
  0.190  0.178  0.000  0.309  0.322  0.000  0.000  0.000  0.000  0.000
  0.190  0.178  0.000  0.309  0.322  0.000  0.000  0.000  0.000  0.000
  0.309  0.322  0.000  0.190  0.178  0.000  0.000  0.000  0.000  0.000
  0.309  0.322  0.000  0.190  0.178  0.000  0.000  0.000  0.000  0.000
 occupations, | n_(i1, i2)^(sigma1, sigma2) |:
  0.989  0.000  0.000  0.000  0.000  0.000  0.002  0.002  0.002  0.002
  0.000  0.983  0.001  0.005  0.000  0.003  0.009  0.009  0.002  0.002
  0.000  0.001  0.983  0.000  0.005  0.003  0.009  0.009  0.002  0.002
  0.000  0.005  0.000  0.983  0.000  0.003  0.003  0.003  0.000  0.000
  0.000  0.000  0.005  0.000  0.983  0.003  0.003  0.003  0.000  0.000
  0.000  0.003  0.003  0.003  0.003  0.049  0.000  0.000  0.000  0.000
  0.002  0.009  0.009  0.003  0.003  0.000  0.143  0.003  0.073  0.000
  0.002  0.009  0.009  0.003  0.003  0.000  0.003  0.143  0.000  0.073
  0.002  0.002  0.002  0.000  0.000  0.000  0.073  0.000  0.103  0.001
  0.002  0.002  0.002  0.000  0.000  0.000  0.000  0.073  0.001  0.103
atomic mx, my, mz =    -0.000000   -0.000000    4.379610
N of occupied +U levels =    5.460708
 --- exit write_ns ---
 --- in v_hubbard ---
Hub. E (dc, noflip, flip, total)    0.0895   0.0915  -0.0000   0.0020
 -------

     total cpu time spent up to now is    43157.7 secs

     total energy              =   -1134.28378274 Ry
     Harris-Foulkes estimate   =   -1134.28320594 Ry
     estimated scf accuracy    <       0.00001393 Ry

     total magnetization       =    -0.00    -0.00     4.87 Bohr mag/cell
     absolute magnetization    =     7.34 Bohr mag/cell

     iteration #386     ecut=   600.00 Ry     beta= 0.40
     Davidson diagonalization with overlap
     ethr =  6.81E-09,  avg # of iterations =  6.9
 --- enter write_ns ---
 LDA+U parameters:
U(  2) =   0.1000   J(  2) =   0.0000   B(  2) =   0.0000
atom    1   Tr[ns(na)] (up, down, total) =   4.92008  0.54016  5.46024
 eigenvalues: 
  0.047  0.048  0.049  0.196  0.201  0.977  0.978  0.988  0.989  0.989
 eigenvectors:
  0.000  0.000  0.000  0.000  0.000  0.000  0.000  0.000  0.000  1.000
  0.000  0.000  0.000  0.000  0.000  0.278  0.236  0.222  0.264  0.000
  0.000  0.000  0.000  0.000  0.000  0.278  0.236  0.222  0.264  0.000
  0.000  0.000  0.000  0.000  0.000  0.222  0.264  0.278  0.236  0.000
  0.000  0.000  0.000  0.000  0.000  0.222  0.264  0.278  0.236  0.000
  0.000  0.000  1.000  0.000  0.000  0.000  0.000  0.000  0.000  0.000
  0.190  0.178  0.000  0.309  0.322  0.000  0.000  0.000  0.000  0.000
  0.190  0.178  0.000  0.309  0.322  0.000  0.000  0.000  0.000  0.000
  0.309  0.322  0.000  0.190  0.178  0.000  0.000  0.000  0.000  0.000
  0.309  0.322  0.000  0.190  0.178  0.000  0.000  0.000  0.000  0.000
 occupations, | n_(i1, i2)^(sigma1, sigma2) |:
  0.989  0.000  0.000  0.000  0.000  0.000  0.002  0.002  0.002  0.002
  0.000  0.983  0.001  0.005  0.000  0.003  0.009  0.009  0.002  0.002
  0.000  0.001  0.983  0.000  0.005  0.003  0.009  0.009  0.002  0.002
  0.000  0.005  0.000  0.983  0.000  0.003  0.003  0.003  0.000  0.000
  0.000  0.000  0.005  0.000  0.983  0.003  0.003  0.003  0.000  0.000
  0.000  0.003  0.003  0.003  0.003  0.049  0.000  0.000  0.000  0.000
  0.002  0.009  0.009  0.003  0.003  0.000  0.143  0.003  0.073  0.000
  0.002  0.009  0.009  0.003  0.003  0.000  0.003  0.143  0.000  0.073
  0.002  0.002  0.002  0.000  0.000  0.000  0.073  0.000  0.103  0.001
  0.002  0.002  0.002  0.000  0.000  0.000  0.000  0.073  0.001  0.103
atomic mx, my, mz =    -0.000000   -0.000000    4.379929
N of occupied +U levels =    5.460240
 --- exit write_ns ---
 --- in v_hubbard ---
Hub. E (dc, noflip, flip, total)    0.0895   0.0915  -0.0000   0.0020
 -------

     total cpu time spent up to now is    43289.6 secs

     total energy              =   -1134.28363218 Ry
     Harris-Foulkes estimate   =   -1134.28429267 Ry
     estimated scf accuracy    <       0.00002821 Ry

     total magnetization       =    -0.00    -0.00     4.87 Bohr mag/cell
     absolute magnetization    =     7.35 Bohr mag/cell

     iteration #387     ecut=   600.00 Ry     beta= 0.40
     Davidson diagonalization with overlap
