/usr/common/software/espresso/6.7-scalapack/hsw/intel/bin/pw.x

     Program PWSCF v.6.7MaX starts on  2Feb2022 at 10:38:31 

     This program is part of the open-source Quantum ESPRESSO suite
     for quantum simulation of materials; please cite
         "P. Giannozzi et al., J. Phys.:Condens. Matter 21 395502 (2009);
         "P. Giannozzi et al., J. Phys.:Condens. Matter 29 465901 (2017);
          URL http://www.quantum-espresso.org", 
     in publications or presentations arising from this work. More details at
     http://www.quantum-espresso.org/quote

     Parallel version (MPI & OpenMP), running on    4096 processor cores
     Number of MPI processes:              4096
     Threads/MPI process:                     1

     MPI processes distributed on    64 nodes
     K-points division:     npool     =       4
     band groups division:  nbgrp     =      16
     R & G space division:  proc/nbgrp/npool/nimage =      64
     Reading input from scf.in

     Current dimensions of program PWSCF are:
     Max number of different atomic species (ntypx) = 10
     Max number of k-points (npk) =  40000
     Max angular momentum in pseudopotentials (lmaxx) =  3
     Message from routine read_pp_mesh:
     mesh size missing, using the one in header
     Message from routine read_pp_mesh:
     mesh size missing, using the one in header
     Message from routine read_pp_mesh:
     mesh size missing, using the one in header
     Message from routine read_pp_mesh:
     mesh size missing, using the one in header

     IMPORTANT: XC functional enforced from input :
     Exchange-correlation= PBE0
                           (   6   4   8   4   0   0   0)
     EXX-fraction              =        0.25
     Any further DFT definition will be discarded
     Please, verify this is what you really want

     Message from routine setup :
     BEWARE: nonlinear core correction is not consistent with hybrid XC

     Fixed quantization axis for GGA:     0.000000    0.000000    1.000000

     Subspace diagonalization in iterative solution of the eigenvalue problem:
     one sub-group per band group will be used
     scalapack distributed-memory algorithm (size of sub-group:  8*  8 procs)

     EXX: q-point mesh:     1    1    1
     EXX: setup a grid of 25 q-points centered on each k-point
     (k+q)-points:
   0.0000000   0.0000000   0.0000000         1    1
   0.0000000   0.2309401  -0.0105932         2    1
   0.0000000   0.4618802  -0.0211864         3    1
   0.0000000  -0.4618802   0.0211864         4    1
   0.0000000  -0.2309401   0.0105932         5    1
   0.2000000   0.1154701   0.0105932         6    1
   0.2000000   0.3464102  -0.0000000         7    1
   0.2000000   0.5773503  -0.0105932         8    1
   0.2000000  -0.3464102   0.0317795         9    1
   0.2000000  -0.1154701   0.0211864        10    1
   0.4000000   0.2309401   0.0211864        11    1
   0.4000000   0.4618802   0.0105932        12    1
   0.4000000   0.6928203  -0.0000000        13    1
   0.4000000  -0.2309401   0.0423727        14    1
   0.4000000   0.0000000   0.0317795        15    1
  -0.4000000  -0.2309401  -0.0211864        16    1
  -0.4000000  -0.0000000  -0.0317795        17    1
  -0.4000000   0.2309401  -0.0423727        18    1
  -0.4000000  -0.6928203   0.0000000        19    1
  -0.4000000  -0.4618802  -0.0105932        20    1
  -0.2000000  -0.1154701  -0.0105932        21    1
  -0.2000000   0.1154701  -0.0211864        22    1
  -0.2000000   0.3464102  -0.0317795        23    1
  -0.2000000  -0.5773503   0.0105932        24    1
  -0.2000000  -0.3464102   0.0000000        25    1
 
     Parallelization info
     --------------------
     sticks:   dense  smooth     PW     G-vecs:    dense   smooth      PW
     Min          23      23      6                 4513     4513     673
     Max          24      24      7                 4545     4545     704
     Sum        1483    1483    421               289535   289535   44203
 


     bravais-lattice index     =            0
     lattice parameter (alat)  =       8.1895  a.u.
     unit-cell volume          =    2993.5487 (a.u.)^3
     number of atoms/cell      =           14
     number of atomic types    =            4
     number of electrons       =       218.00
     number of Kohn-Sham states=          224
     kinetic-energy cutoff     =      80.0000  Ry
     charge density cutoff     =     320.0000  Ry
     cutoff for Fock operator  =     320.0000  Ry
     scf convergence threshold =      5.0E-04
     mixing beta               =       0.2500
     number of iterations used =            4  plain     mixing
     Exchange-correlation= PBE0
                           (   6   4   8   4   0   0   0)
     EXX-fraction              =        0.25
     Noncollinear calculation with spin-orbit


     celldm(1)=   8.189506  celldm(2)=   0.000000  celldm(3)=   0.000000
     celldm(4)=   0.000000  celldm(5)=   0.000000  celldm(6)=   0.000000

     crystal axes: (cart. coord. in units of alat)
               a(1) = (   1.000000   0.000000   0.000000 )  
               a(2) = (  -0.500000   0.866025   0.000000 )  
               a(3) = (  -0.500000   0.288675   6.293360 )  

     reciprocal axes: (cart. coord. in units 2 pi/alat)
               b(1) = (  1.000000  0.577350  0.052966 )  
               b(2) = (  0.000000  1.154701 -0.052966 )  
               b(3) = (  0.000000  0.000000  0.158898 )  


     PseudoPot. # 1 for Bi read from file:
     ./Bi.upf
     MD5 check sum: 260977096fd1df4b879f04c556a28fcb
     Pseudo is Norm-conserving + core correction, Zval = 15.0
     Generated using ONCVPSP code by D. R. Hamann
     Using radial grid of 1562 points, 10 beta functions with: 
                l(1) =   0
                l(2) =   0
                l(3) =   1
                l(4) =   1
                l(5) =   1
                l(6) =   1
                l(7) =   2
                l(8) =   2
                l(9) =   2
               l(10) =   2

     PseudoPot. # 2 for Mn read from file:
     ./Mn.upf
     MD5 check sum: ae71e1481ef25a952ba54bed1e0db183
     Pseudo is Norm-conserving + core correction, Zval = 15.0
     Generated using ONCVPSP code by D. R. Hamann
     Using radial grid of 1464 points,  6 beta functions with: 
                l(1) =   0
                l(2) =   0
                l(3) =   1
                l(4) =   1
                l(5) =   2
                l(6) =   2

     PseudoPot. # 3 for Mn read from file:
     ./Mn.upf
     MD5 check sum: ae71e1481ef25a952ba54bed1e0db183
     Pseudo is Norm-conserving + core correction, Zval = 15.0
     Generated using ONCVPSP code by D. R. Hamann
     Using radial grid of 1464 points,  6 beta functions with: 
                l(1) =   0
                l(2) =   0
                l(3) =   1
                l(4) =   1
                l(5) =   2
                l(6) =   2

     PseudoPot. # 4 for Te read from file:
     ./Te.upf
     MD5 check sum: d198e370297ac1d7edee156d0fe975c4
     Pseudo is Norm-conserving + core correction, Zval = 16.0
     Generated using ONCVPSP code by D. R. Hamann
     Using radial grid of 1324 points, 10 beta functions with: 
                l(1) =   0
                l(2) =   0
                l(3) =   1
                l(4) =   1
                l(5) =   1
                l(6) =   1
                l(7) =   2
                l(8) =   2
                l(9) =   2
               l(10) =   2

     atomic species   valence    mass     pseudopotential
        Bi            15.00   208.98000     Bi( 1.00)
        Mn1           15.00    54.93800     Mn( 1.00)
        Mn2           15.00    54.93800     Mn( 1.00)
        Te            16.00   127.60000     Te( 1.00)

     No symmetry found


                                    s                        frac. trans.

      isym =  1     identity                                     

 Time Reversal            0
 cryst.   s( 1) = (     1          0          0      )
                  (     0          1          0      )
                  (     0          0          1      )

 cart.    s( 1) = (  1.0000000  0.0000000 -0.0000000 )
                  (  0.0000000  1.0000000  0.0000000 )
                  (  0.0000000  0.0000000  1.0000000 )


   Cartesian axes

     site n.     atom                  positions (alat units)
         1           Mn1 tau(   1) = (   0.0000000   0.0000000   0.0000000  )
         2           Mn2 tau(   2) = (   0.0000000   0.5773503   3.1466799  )
         3           Bi  tau(   3) = (  -0.5000000   0.8660254   4.0108841  )
         4           Bi  tau(   4) = (   0.5000000   0.2886751   0.8642042  )
         5           Bi  tau(   5) = (   0.5000000   0.2886751   2.2824757  )
         6           Bi  tau(   6) = (  -0.5000000   0.8660254   5.4291556  )
         7           Te  tau(   7) = (  -0.5000000   0.8660254   1.2586405  )
         8           Te  tau(   8) = (   0.5000000   0.2886751   5.0347193  )
         9           Te  tau(   9) = (   0.0000000   0.5773503   4.4053204  )
        10           Te  tau(  10) = (   0.0000000   0.5773503   1.8880394  )
        11           Te  tau(  11) = (  -0.5000000   0.8660254   2.7787701  )
        12           Te  tau(  12) = (   0.5000000   0.2886751   3.5145897  )
        13           Te  tau(  13) = (   0.0000000   0.5773503   5.9254500  )
        14           Te  tau(  14) = (   0.0000000   0.5773503   0.3679098  )

   Crystallographic axes

     site n.     atom                  positions (cryst. coord.)
         1           Mn1 tau(   1) = (  0.0000000  0.0000000  0.0000000  )
         2           Mn2 tau(   2) = (  0.5000000  0.5000000  0.5000000  )
         3           Bi  tau(   3) = (  0.2124400  0.7875600  0.6373200  )
         4           Bi  tau(   4) = (  0.7124400  0.2875600  0.1373200  )
         5           Bi  tau(   5) = (  0.7875600  0.2124400  0.3626800  )
         6           Bi  tau(   6) = (  0.2875600  0.7124400  0.8626800  )
         7           Te  tau(   7) = (  0.0666650  0.9333350  0.1999950  )
         8           Te  tau(   8) = (  0.9333350  0.0666650  0.8000050  )
         9           Te  tau(   9) = (  0.5666650  0.4333350  0.6999950  )
        10           Te  tau(  10) = (  0.4333350  0.5666650  0.3000050  )
        11           Te  tau(  11) = (  0.1471800  0.8528200  0.4415400  )
        12           Te  tau(  12) = (  0.8528200  0.1471800  0.5584600  )
        13           Te  tau(  13) = (  0.6471800  0.3528200  0.9415400  )
        14           Te  tau(  14) = (  0.3528200  0.6471800  0.0584600  )

     number of k points=    25  Methfessel-Paxton smearing, width (Ry)=  0.0050
                       cart. coord. in units 2pi/alat
        k(    1) = (   0.0000000   0.0000000   0.0000000), wk =   0.0400000
        k(    2) = (   0.0000000   0.2309401  -0.0105932), wk =   0.0400000
        k(    3) = (   0.0000000   0.4618802  -0.0211864), wk =   0.0400000
        k(    4) = (   0.0000000  -0.4618802   0.0211864), wk =   0.0400000
        k(    5) = (   0.0000000  -0.2309401   0.0105932), wk =   0.0400000
        k(    6) = (   0.2000000   0.1154701   0.0105932), wk =   0.0400000
        k(    7) = (   0.2000000   0.3464102  -0.0000000), wk =   0.0400000
        k(    8) = (   0.2000000   0.5773503  -0.0105932), wk =   0.0400000
        k(    9) = (   0.2000000  -0.3464102   0.0317795), wk =   0.0400000
        k(   10) = (   0.2000000  -0.1154701   0.0211864), wk =   0.0400000
        k(   11) = (   0.4000000   0.2309401   0.0211864), wk =   0.0400000
        k(   12) = (   0.4000000   0.4618802   0.0105932), wk =   0.0400000
        k(   13) = (   0.4000000   0.6928203  -0.0000000), wk =   0.0400000
        k(   14) = (   0.4000000  -0.2309401   0.0423727), wk =   0.0400000
        k(   15) = (   0.4000000   0.0000000   0.0317795), wk =   0.0400000
        k(   16) = (  -0.4000000  -0.2309401  -0.0211864), wk =   0.0400000
        k(   17) = (  -0.4000000  -0.0000000  -0.0317795), wk =   0.0400000
        k(   18) = (  -0.4000000   0.2309401  -0.0423727), wk =   0.0400000
        k(   19) = (  -0.4000000  -0.6928203   0.0000000), wk =   0.0400000
        k(   20) = (  -0.4000000  -0.4618802  -0.0105932), wk =   0.0400000
        k(   21) = (  -0.2000000  -0.1154701  -0.0105932), wk =   0.0400000
        k(   22) = (  -0.2000000   0.1154701  -0.0211864), wk =   0.0400000
        k(   23) = (  -0.2000000   0.3464102  -0.0317795), wk =   0.0400000
        k(   24) = (  -0.2000000  -0.5773503   0.0105932), wk =   0.0400000
        k(   25) = (  -0.2000000  -0.3464102   0.0000000), wk =   0.0400000

                       cryst. coord.
        k(    1) = (   0.0000000   0.0000000   0.0000000), wk =   0.0400000
        k(    2) = (   0.0000000   0.2000000   0.0000000), wk =   0.0400000
        k(    3) = (   0.0000000   0.4000000   0.0000000), wk =   0.0400000
        k(    4) = (   0.0000000  -0.4000000  -0.0000000), wk =   0.0400000
        k(    5) = (   0.0000000  -0.2000000  -0.0000000), wk =   0.0400000
        k(    6) = (   0.2000000   0.0000000   0.0000000), wk =   0.0400000
        k(    7) = (   0.2000000   0.2000000  -0.0000000), wk =   0.0400000
        k(    8) = (   0.2000000   0.4000000  -0.0000000), wk =   0.0400000
        k(    9) = (   0.2000000  -0.4000000   0.0000000), wk =   0.0400000
        k(   10) = (   0.2000000  -0.2000000  -0.0000000), wk =   0.0400000
        k(   11) = (   0.4000000   0.0000000   0.0000000), wk =   0.0400000
        k(   12) = (   0.4000000   0.2000000  -0.0000000), wk =   0.0400000
        k(   13) = (   0.4000000   0.4000000  -0.0000000), wk =   0.0400000
        k(   14) = (   0.4000000  -0.4000000  -0.0000000), wk =   0.0400000
        k(   15) = (   0.4000000  -0.2000000  -0.0000000), wk =   0.0400000
        k(   16) = (  -0.4000000   0.0000000  -0.0000000), wk =   0.0400000
        k(   17) = (  -0.4000000   0.2000000   0.0000000), wk =   0.0400000
        k(   18) = (  -0.4000000   0.4000000   0.0000000), wk =   0.0400000
        k(   19) = (  -0.4000000  -0.4000000   0.0000000), wk =   0.0400000
        k(   20) = (  -0.4000000  -0.2000000   0.0000000), wk =   0.0400000
        k(   21) = (  -0.2000000   0.0000000  -0.0000000), wk =   0.0400000
        k(   22) = (  -0.2000000   0.2000000   0.0000000), wk =   0.0400000
        k(   23) = (  -0.2000000   0.4000000  -0.0000000), wk =   0.0400000
        k(   24) = (  -0.2000000  -0.4000000   0.0000000), wk =   0.0400000
        k(   25) = (  -0.2000000  -0.2000000   0.0000000), wk =   0.0400000

     Dense  grid:   289535 G-vectors     FFT dimensions: (  48,  48, 300)

     Dynamical RAM for                 wfc:       3.86 MB

     Dynamical RAM for     wfc (w. buffer):      30.90 MB

     Dynamical RAM for                 EXX:     159.49 MB

     Dynamical RAM for           str. fact:       0.28 MB

     Dynamical RAM for           local pot:       0.00 MB

     Dynamical RAM for          nlocal pot:       3.83 MB

     Dynamical RAM for                qrad:      15.83 MB

     Dynamical RAM for          rho,v,vnew:       1.88 MB

     Dynamical RAM for               rhoin:       0.63 MB

     Dynamical RAM for            rho*nmix:       2.21 MB

     Dynamical RAM for           G-vectors:       0.29 MB

     Dynamical RAM for          h,s,v(r/c):       0.04 MB

     Dynamical RAM for          <psi|beta>:       3.04 MB

     Dynamical RAM for      wfcinit/wfcrot:       8.12 MB

     Estimated static dynamical RAM per process >     216.38 MB

     Estimated max dynamical RAM per process >     224.50 MB

     Estimated total dynamical RAM >     898.00 GB
     Generating pointlists ...
     new r_m :   0.2884 (alat units)  2.3621 (a.u.) for type    1
     new r_m :   0.2824 (alat units)  2.3127 (a.u.) for type    2
     new r_m :   0.2824 (alat units)  2.3127 (a.u.) for type    3
     new r_m :   0.2824 (alat units)  2.3127 (a.u.) for type    4

     Initial potential from superposition of free atoms

     starting charge  217.99288, renormalised to  218.00000

 ==============================================================================
     atom number    1 relative position :    0.0000   0.0000   0.0000
     charge :    13.702980
     magnetization :          0.000000    0.000000   13.429815
     magnetization/charge:    0.000000    0.000000    0.980065
     polar coord.: r, theta, phi [deg] :    13.429815    0.000000  360.000000

 ==============================================================================

 ==============================================================================
     atom number    2 relative position :    0.0000   0.5774   3.1467
     charge :    13.702980
     magnetization :          0.000000    0.000000  -13.429815
     magnetization/charge:    0.000000    0.000000   -0.980065
     polar coord.: r, theta, phi [deg] :    13.429815  180.000000  360.000000

 ==============================================================================

 ==============================================================================
     atom number    3 relative position :   -0.5000   0.8660   4.0109
     charge :    12.737577
     magnetization :          0.000000    0.000000   -0.002344
     magnetization/charge:    0.000000    0.000000   -0.000184
     polar coord.: r, theta, phi [deg] :     0.002344  180.000000  360.000000

 ==============================================================================

 ==============================================================================
     atom number    4 relative position :    0.5000   0.2887   0.8642
     charge :    12.737577
     magnetization :          0.000000    0.000000    0.002344
     magnetization/charge:    0.000000    0.000000    0.000184
     polar coord.: r, theta, phi [deg] :     0.002344    0.000000  360.000000

 ==============================================================================

 ==============================================================================
     atom number    5 relative position :    0.5000   0.2887   2.2825
     charge :    12.737577
     magnetization :          0.000000    0.000000   -0.002344
     magnetization/charge:    0.000000    0.000000   -0.000184
     polar coord.: r, theta, phi [deg] :     0.002344  180.000000  360.000000

 ==============================================================================

 ==============================================================================
     atom number    6 relative position :   -0.5000   0.8660   5.4292
     charge :    12.737577
     magnetization :          0.000000    0.000000    0.002344
     magnetization/charge:    0.000000    0.000000    0.000184
     polar coord.: r, theta, phi [deg] :     0.002344    0.000000  360.000000

 ==============================================================================

 ==============================================================================
     atom number    7 relative position :   -0.5000   0.8660   1.2586
     charge :    13.697284
     magnetization :          0.000000    0.000000    0.000053
     magnetization/charge:    0.000000    0.000000    0.000004
     polar coord.: r, theta, phi [deg] :     0.000053    0.000000  360.000000

 ==============================================================================

 ==============================================================================
     atom number    8 relative position :    0.5000   0.2887   5.0347
     charge :    13.697284
     magnetization :          0.000000    0.000000    0.000053
     magnetization/charge:    0.000000    0.000000    0.000004
     polar coord.: r, theta, phi [deg] :     0.000053    0.000000  360.000000

 ==============================================================================

 ==============================================================================
     atom number    9 relative position :    0.0000   0.5774   4.4053
     charge :    13.697284
     magnetization :          0.000000    0.000000   -0.000053
     magnetization/charge:    0.000000    0.000000   -0.000004
     polar coord.: r, theta, phi [deg] :     0.000053  180.000000  360.000000

 ==============================================================================

 ==============================================================================
     atom number   10 relative position :    0.0000   0.5774   1.8880
     charge :    13.697284
     magnetization :          0.000000    0.000000   -0.000053
     magnetization/charge:    0.000000    0.000000   -0.000004
     polar coord.: r, theta, phi [deg] :     0.000053  180.000000  360.000000

 ==============================================================================

 ==============================================================================
     atom number   11 relative position :   -0.5000   0.8660   2.7788
     charge :    13.726881
     magnetization :          0.000000    0.000000   -0.106715
     magnetization/charge:    0.000000    0.000000   -0.007774
     polar coord.: r, theta, phi [deg] :     0.106715  180.000000  360.000000

 ==============================================================================

 ==============================================================================
     atom number   12 relative position :    0.5000   0.2887   3.5146
     charge :    13.726881
     magnetization :          0.000000    0.000000   -0.106715
     magnetization/charge:    0.000000    0.000000   -0.007774
     polar coord.: r, theta, phi [deg] :     0.106715  180.000000  360.000000

 ==============================================================================

 ==============================================================================
     atom number   13 relative position :    0.0000   0.5774   5.9254
     charge :    13.726881
     magnetization :          0.000000    0.000000    0.106715
     magnetization/charge:    0.000000    0.000000    0.007774
     polar coord.: r, theta, phi [deg] :     0.106715    0.000000  360.000000

 ==============================================================================

 ==============================================================================
     atom number   14 relative position :    0.0000   0.5774   0.3679
     charge :    13.726881
     magnetization :          0.000000    0.000000    0.106715
     magnetization/charge:    0.000000    0.000000    0.007774
     polar coord.: r, theta, phi [deg] :     0.106715    0.000000  360.000000

 ==============================================================================
     Starting wfcs are  256 randomized atomic wfcs

     total cpu time spent up to now is        8.2 secs

     Self-consistent Calculation

     iteration #  1     ecut=    80.00 Ry     beta= 0.25
     CG style diagonalization
     ethr =  1.00E-02,  avg # of iterations =  2.6

     total cpu time spent up to now is       67.1 secs

     total energy              =   -2765.63846946 Ry
     estimated scf accuracy    <       5.54200243 Ry

     total magnetization       =    -0.00     0.00    -0.00 Bohr mag/cell
     absolute magnetization    =    10.82 Bohr mag/cell

     iteration #  2     ecut=    80.00 Ry     beta= 0.25
     CG style diagonalization
     ethr =  2.54E-03,  avg # of iterations =  3.0

     total cpu time spent up to now is      114.7 secs

     total energy              =   -2767.66915973 Ry
     estimated scf accuracy    <       2.99669077 Ry

     total magnetization       =     0.00     0.00    -0.00 Bohr mag/cell
     absolute magnetization    =    10.89 Bohr mag/cell

     iteration #  3     ecut=    80.00 Ry     beta= 0.25
     CG style diagonalization
     ethr =  1.37E-03,  avg # of iterations =  3.3

     total cpu time spent up to now is      170.7 secs

     total energy              =   -2767.87826301 Ry
     estimated scf accuracy    <       0.73741776 Ry

     total magnetization       =     0.00     0.00     0.01 Bohr mag/cell
     absolute magnetization    =    10.59 Bohr mag/cell

     iteration #  4     ecut=    80.00 Ry     beta= 0.25
     CG style diagonalization
     ethr =  3.38E-04,  avg # of iterations =  3.2

     total cpu time spent up to now is      226.1 secs

     total energy              =   -2767.91027894 Ry
     estimated scf accuracy    <       0.27433160 Ry

     total magnetization       =     0.00    -0.00    -0.02 Bohr mag/cell
     absolute magnetization    =    10.33 Bohr mag/cell

     iteration #  5     ecut=    80.00 Ry     beta= 0.25
     CG style diagonalization
     c_bands:  1 eigenvalues not converged
     c_bands:  1 eigenvalues not converged
     ethr =  1.26E-04,  avg # of iterations =  3.9

     total cpu time spent up to now is      300.1 secs

     total energy              =   -2767.93343545 Ry
     estimated scf accuracy    <       0.21033512 Ry

     total magnetization       =    -0.00     0.00     0.05 Bohr mag/cell
     absolute magnetization    =     9.95 Bohr mag/cell

     iteration #  6     ecut=    80.00 Ry     beta= 0.25
     CG style diagonalization
     c_bands:  3 eigenvalues not converged
     c_bands:  2 eigenvalues not converged
     c_bands:  2 eigenvalues not converged
     c_bands:  3 eigenvalues not converged
     c_bands:  3 eigenvalues not converged
     c_bands:  2 eigenvalues not converged
     ethr =  9.65E-05,  avg # of iterations =  3.8

     total cpu time spent up to now is      369.7 secs

     total energy              =   -2767.89200593 Ry
     estimated scf accuracy    <       2.19465101 Ry

     total magnetization       =     0.01    -0.01    -0.40 Bohr mag/cell
     absolute magnetization    =     9.94 Bohr mag/cell

     iteration #  7     ecut=    80.00 Ry     beta= 0.25
     CG style diagonalization
     c_bands:  1 eigenvalues not converged
     c_bands:  1 eigenvalues not converged
     ethr =  9.65E-05,  avg # of iterations =  3.6

     total cpu time spent up to now is      432.7 secs

     total energy              =   -2767.97246585 Ry
     estimated scf accuracy    <       0.01986127 Ry

     total magnetization       =     0.00    -0.00     0.01 Bohr mag/cell
     absolute magnetization    =     9.93 Bohr mag/cell

     iteration #  8     ecut=    80.00 Ry     beta= 0.25
     CG style diagonalization
     c_bands:  1 eigenvalues not converged
     c_bands:  1 eigenvalues not converged
     c_bands:  3 eigenvalues not converged
     c_bands:  2 eigenvalues not converged
     c_bands:  1 eigenvalues not converged
     c_bands:  4 eigenvalues not converged
     ethr =  9.11E-06,  avg # of iterations =  4.3

     total cpu time spent up to now is      515.2 secs

     total energy              =   -2767.97577653 Ry
     estimated scf accuracy    <       0.02821180 Ry

     total magnetization       =     0.00     0.00     0.03 Bohr mag/cell
     absolute magnetization    =     9.89 Bohr mag/cell

     iteration #  9     ecut=    80.00 Ry     beta= 0.25
     CG style diagonalization
     c_bands:  2 eigenvalues not converged
     c_bands:  2 eigenvalues not converged
     c_bands:  2 eigenvalues not converged
     c_bands:  2 eigenvalues not converged
     ethr =  9.11E-06,  avg # of iterations =  3.5

     total cpu time spent up to now is      575.7 secs

     total energy              =   -2767.97617357 Ry
     estimated scf accuracy    <       0.04366018 Ry

     total magnetization       =    -0.00     0.00     0.04 Bohr mag/cell
     absolute magnetization    =     9.89 Bohr mag/cell

     iteration # 10     ecut=    80.00 Ry     beta= 0.25
     CG style diagonalization
     c_bands:  2 eigenvalues not converged
     c_bands:  1 eigenvalues not converged
     c_bands:  2 eigenvalues not converged
     c_bands:  1 eigenvalues not converged
     ethr =  9.11E-06,  avg # of iterations =  3.3

     total cpu time spent up to now is      633.2 secs

     total energy              =   -2767.97774677 Ry
     estimated scf accuracy    <       0.00554730 Ry

     total magnetization       =    -0.00     0.00    -0.00 Bohr mag/cell
     absolute magnetization    =     9.90 Bohr mag/cell

     iteration # 11     ecut=    80.00 Ry     beta= 0.25
     CG style diagonalization
     c_bands:  2 eigenvalues not converged
     c_bands:  1 eigenvalues not converged
     c_bands:  2 eigenvalues not converged
     ethr =  2.54E-06,  avg # of iterations =  3.6

     total cpu time spent up to now is      700.5 secs

     total energy              =   -2767.97846771 Ry
     estimated scf accuracy    <       0.00227644 Ry

     total magnetization       =     0.00     0.00    -0.00 Bohr mag/cell
     absolute magnetization    =     9.90 Bohr mag/cell

     iteration # 12     ecut=    80.00 Ry     beta= 0.25
     CG style diagonalization
     c_bands:  2 eigenvalues not converged
     c_bands:  1 eigenvalues not converged
     c_bands:  2 eigenvalues not converged
     ethr =  1.04E-06,  avg # of iterations =  3.5

     total cpu time spent up to now is      765.5 secs

     total energy              =   -2767.97877718 Ry
     estimated scf accuracy    <       0.00062485 Ry

     total magnetization       =     0.00    -0.00    -0.01 Bohr mag/cell
     absolute magnetization    =     9.90 Bohr mag/cell

     iteration # 13     ecut=    80.00 Ry     beta= 0.25
     CG style diagonalization
     c_bands:  1 eigenvalues not converged
     c_bands:  1 eigenvalues not converged
     c_bands:  1 eigenvalues not converged
     ethr =  2.87E-07,  avg # of iterations =  3.8

     total cpu time spent up to now is      840.1 secs

     total energy              =   -2767.97892340 Ry
     estimated scf accuracy    <       0.00091186 Ry

     total magnetization       =     0.00    -0.00     0.01 Bohr mag/cell
     absolute magnetization    =     9.90 Bohr mag/cell

     iteration # 14     ecut=    80.00 Ry     beta= 0.25
     CG style diagonalization
     c_bands:  1 eigenvalues not converged
     c_bands:  1 eigenvalues not converged
     ethr =  2.87E-07,  avg # of iterations =  3.2

 ==============================================================================
     atom number    1 relative position :    0.0000   0.0000   0.0000
     charge :    13.658969
     magnetization :         -0.000014    0.000105    4.356162
     magnetization/charge:   -0.000001    0.000008    0.318923
     polar coord.: r, theta, phi [deg] :     4.356162    0.001398   97.831022

 ==============================================================================

 ==============================================================================
     atom number    2 relative position :    0.0000   0.5774   3.1467
     charge :    13.661809
     magnetization :          0.000571   -0.000439   -4.356420
     magnetization/charge:    0.000042   -0.000032   -0.318876
     polar coord.: r, theta, phi [deg] :     4.356421  179.990526  -37.588795

 ==============================================================================

 ==============================================================================
     atom number    3 relative position :   -0.5000   0.8660   4.0109
     charge :    12.636350
     magnetization :         -0.000050    0.000031   -0.024771
     magnetization/charge:   -0.000004    0.000002   -0.001960
     polar coord.: r, theta, phi [deg] :     0.024771  179.863766  148.649991

 ==============================================================================

 ==============================================================================
     atom number    4 relative position :    0.5000   0.2887   0.8642
     charge :    12.636421
     magnetization :          0.000079   -0.000045    0.025123
     magnetization/charge:    0.000006   -0.000004    0.001988
     polar coord.: r, theta, phi [deg] :     0.025123    0.207522  -29.653890

 ==============================================================================

 ==============================================================================
     atom number    5 relative position :    0.5000   0.2887   2.2825
     charge :    12.637819
     magnetization :         -0.000023    0.000026   -0.024987
     magnetization/charge:   -0.000002    0.000002   -0.001977
     polar coord.: r, theta, phi [deg] :     0.024987  179.920717  130.863743

 ==============================================================================

 ==============================================================================
     atom number    6 relative position :   -0.5000   0.8660   5.4292
     charge :    12.635722
     magnetization :          0.000048   -0.000006    0.024949
     magnetization/charge:    0.000004   -0.000000    0.001975
     polar coord.: r, theta, phi [deg] :     0.024949    0.109993   -7.341218

 ==============================================================================

 ==============================================================================
     atom number    7 relative position :   -0.5000   0.8660   1.2586
     charge :    13.751723
     magnetization :         -0.000033    0.000050    0.049385
     magnetization/charge:   -0.000002    0.000004    0.003591
     polar coord.: r, theta, phi [deg] :     0.049385    0.069908  123.222294

 ==============================================================================

 ==============================================================================
     atom number    8 relative position :    0.5000   0.2887   5.0347
     charge :    13.747970
     magnetization :         -0.000030    0.000031    0.049039
     magnetization/charge:   -0.000002    0.000002    0.003567
     polar coord.: r, theta, phi [deg] :     0.049039    0.050620  134.515031

 ==============================================================================

 ==============================================================================
     atom number    9 relative position :    0.0000   0.5774   4.4053
     charge :    13.747195
     magnetization :         -0.000031    0.000042   -0.049095
     magnetization/charge:   -0.000002    0.000003   -0.003571
     polar coord.: r, theta, phi [deg] :     0.049095  179.939162  126.496769

 ==============================================================================

 ==============================================================================
     atom number   10 relative position :    0.0000   0.5774   1.8880
     charge :    13.750678
     magnetization :         -0.000004   -0.000001   -0.049430
     magnetization/charge:   -0.000000   -0.000000   -0.003595
     polar coord.: r, theta, phi [deg] :     0.049430  179.995643 -161.308039

 ==============================================================================

 ==============================================================================
     atom number   11 relative position :   -0.5000   0.8660   2.7788
     charge :    13.796409
     magnetization :          0.000137   -0.000063   -0.011633
     magnetization/charge:    0.000010   -0.000005   -0.000843
     polar coord.: r, theta, phi [deg] :     0.011633  179.255813  -24.845496

 ==============================================================================

 ==============================================================================
     atom number   12 relative position :    0.5000   0.2887   3.5146
     charge :    13.796957
     magnetization :          0.000150   -0.000064   -0.012030
     magnetization/charge:    0.000011   -0.000005   -0.000872
     polar coord.: r, theta, phi [deg] :     0.012031  179.223290  -22.964406

 ==============================================================================

 ==============================================================================
     atom number   13 relative position :    0.0000   0.5774   5.9254
     charge :    13.793660
     magnetization :         -0.000064    0.000036    0.010403
     magnetization/charge:   -0.000005    0.000003    0.000754
     polar coord.: r, theta, phi [deg] :     0.010403    0.401183  150.714514

 ==============================================================================

 ==============================================================================
     atom number   14 relative position :    0.0000   0.5774   0.3679
     charge :    13.793274
     magnetization :         -0.000029    0.000020    0.010169
     magnetization/charge:   -0.000002    0.000001    0.000737
     polar coord.: r, theta, phi [deg] :     0.010169    0.198851  144.573362

 ==============================================================================

     total cpu time spent up to now is      896.0 secs

     End of self-consistent calculation

          k = 0.0000 0.0000 0.0000 ( 36213 PWs)   bands (ev):

   -72.0113 -71.9973 -67.7803 -67.7638 -40.9011 -40.9010 -40.9005 -40.8875
   -40.8871 -40.8864 -36.4072 -36.4072 -36.3974 -36.3904 -36.3904 -36.3813
   -28.1160 -28.1146 -28.1145 -28.1103 -28.1095 -28.1088 -28.1081 -28.1030
   -28.0997 -28.0983 -28.0982 -28.0945 -28.0936 -28.0931 -28.0918 -28.0872
   -27.7035 -27.7028 -27.6994 -27.6986 -27.6844 -27.6836 -27.6818 -27.6802
   -27.6793 -27.6793 -27.6778 -27.6752 -27.6629 -27.6601 -27.6587 -27.6560
   -26.6519 -26.6518 -26.6514 -26.6489 -26.6486 -26.6460 -26.6455 -26.6445
   -26.6438 -26.6413 -26.6398 -26.6356 -26.6355 -26.6351 -26.6348 -26.6327
   -26.6325 -26.6301 -26.6297 -26.6285 -26.6281 -26.6255 -26.6234 -26.6190
   -26.2393 -26.2391 -26.2353 -26.2350 -26.2320 -26.2294 -26.2277 -26.2251
   -26.2202 -26.2200 -26.2160 -26.2157 -26.2131 -26.2115 -26.2101 -26.2087
   -26.2083 -26.2076 -26.2058 -26.2043 -26.1926 -26.1894 -26.1884 -26.1852
   -15.0545 -15.0469 -15.0433 -15.0420 -15.0420 -15.0410 -15.0356 -15.0346
   -15.0314 -15.0308 -15.0297 -15.0296 -15.0287 -15.0238 -15.0190 -15.0177
   -12.0785 -12.0702 -12.0672 -12.0661 -12.0659 -12.0589 -12.0578 -12.0572
   -12.0565 -12.0564 -12.0554 -12.0546 -12.0535 -12.0470 -12.0460 -12.0451
   -12.0450 -12.0449 -12.0442 -12.0441 -12.0426 -12.0342 -12.0333 -12.0331
    -3.6143  -3.6125  -3.5805  -3.5790  -3.3980  -3.3965  -3.3456  -3.3445
    -1.9699  -1.9659  -1.7654  -1.7615  -1.4754  -1.4741  -1.2117  -1.2106
     0.4079   0.4088   0.7449   0.7455   1.0863   1.0868   1.3649   1.3652
     5.4775   5.4907   5.8117   5.8247   6.0691   6.0842   6.1169   6.1304
     6.5608   6.5610   6.5884   6.5904   6.6032   6.6053   6.8012   6.8099
     7.0798   7.0801   7.1978   7.1981   7.4095   7.4180   7.5788   7.5819
     7.6445   7.6448   7.8660   7.8752   7.9912   8.0075   8.0965   8.0974
     8.2282   8.2293   8.2372   8.2386   8.2672   8.2686   8.5036   8.5044
     8.5801   8.5822   8.7190   8.7208   8.8751   8.8765   8.9865   8.9967
     9.1011   9.1101   9.1861   9.1949   9.4520   9.4581   9.5264   9.5295
     9.6445   9.6597   9.7420   9.7424   9.7562   9.7553   9.9197   9.9249

     occupation numbers 
     1.0000   1.0000   1.0000   1.0000   1.0000   1.0000   1.0000   1.0000
     1.0000   1.0000   1.0000   1.0000   1.0000   1.0000   1.0000   1.0000
     1.0000   1.0000   1.0000   1.0000   1.0000   1.0000   1.0000   1.0000
     1.0000   1.0000   1.0000   1.0000   1.0000   1.0000   1.0000   1.0000
     1.0000   1.0000   1.0000   1.0000   1.0000   1.0000   1.0000   1.0000
     1.0000   1.0000   1.0000   1.0000   1.0000   1.0000   1.0000   1.0000
     1.0000   1.0000   1.0000   1.0000   1.0000   1.0000   1.0000   1.0000
     1.0000   1.0000   1.0000   1.0000   1.0000   1.0000   1.0000   1.0000
     1.0000   1.0000   1.0000   1.0000   1.0000   1.0000   1.0000   1.0000
     1.0000   1.0000   1.0000   1.0000   1.0000   1.0000   1.0000   1.0000
     1.0000   1.0000   1.0000   1.0000   1.0000   1.0000   1.0000   1.0000
     1.0000   1.0000   1.0000   1.0000   1.0000   1.0000   1.0000   1.0000
     1.0000   1.0000   1.0000   1.0000   1.0000   1.0000   1.0000   1.0000
     1.0000   1.0000   1.0000   1.0000   1.0000   1.0000   1.0000   1.0000
     1.0000   1.0000   1.0000   1.0000   1.0000   1.0000   1.0000   1.0000
     1.0000   1.0000   1.0000   1.0000   1.0000   1.0000   1.0000   1.0000
     1.0000   1.0000   1.0000   1.0000   1.0000   1.0000   1.0000   1.0000
     1.0000   1.0000   1.0000   1.0000   1.0000   1.0000   1.0000   1.0000
     1.0000   1.0000   1.0000   1.0000   1.0000   1.0000   1.0000   1.0000
     1.0000   1.0000   1.0000   1.0000   1.0000   1.0000   1.0000   1.0000
     1.0000   1.0000   1.0000   1.0000   1.0000   1.0000   1.0000   1.0000
     1.0000   1.0000   1.0000   1.0000   1.0000   1.0000   1.0000   1.0000
     1.0000   1.0000   1.0000   1.0000   1.0000   1.0000   1.0000   1.0000
     1.0000   1.0000   1.0000   1.0000   1.0000   1.0000   1.0000   1.0000
     1.0000   1.0000   1.0000   1.0000   1.0000   1.0000   1.0000   1.0000
     1.0000   1.0000   1.0000   1.0000   1.0000   1.0000   1.0000   1.0000
     1.0000   1.0000   1.0000   1.0000   1.0000   1.0000   1.0011   1.0013
     0.9858   0.9011   0.0590   0.0562  -0.0036  -0.0008  -0.0000  -0.0000

          k = 0.0000 0.2309-0.0106 ( 36190 PWs)   bands (ev):

   -72.0113 -71.9973 -67.7803 -67.7638 -40.9013 -40.9010 -40.9005 -40.8876
   -40.8871 -40.8864 -36.4074 -36.4073 -36.3973 -36.3907 -36.3905 -36.3813
   -28.1160 -28.1145 -28.1144 -28.1104 -28.1093 -28.1088 -28.1079 -28.1029
   -28.0997 -28.0982 -28.0981 -28.0946 -28.0934 -28.0931 -28.0916 -28.0871
   -27.7034 -27.7027 -27.6994 -27.6986 -27.6843 -27.6836 -27.6816 -27.6801
   -27.6793 -27.6791 -27.6776 -27.6751 -27.6628 -27.6599 -27.6586 -27.6558
   -26.6518 -26.6516 -26.6512 -26.6489 -26.6484 -26.6458 -26.6454 -26.6447
   -26.6435 -26.6413 -26.6395 -26.6355 -26.6353 -26.6350 -26.6345 -26.6327
   -26.6322 -26.6298 -26.6297 -26.6287 -26.6277 -26.6256 -26.6232 -26.6187
   -26.2392 -26.2390 -26.2352 -26.2349 -26.2319 -26.2294 -26.2278 -26.2252
   -26.2201 -26.2198 -26.2159 -26.2156 -26.2130 -26.2113 -26.2101 -26.2087
   -26.2081 -26.2073 -26.2058 -26.2040 -26.1923 -26.1891 -26.1881 -26.1850
   -15.0535 -15.0460 -15.0424 -15.0423 -15.0411 -15.0410 -15.0346 -15.0337
   -15.0311 -15.0304 -15.0300 -15.0297 -15.0288 -15.0228 -15.0192 -15.0178
   -12.0769 -12.0701 -12.0665 -12.0656 -12.0645 -12.0588 -12.0585 -12.0577
   -12.0555 -12.0552 -12.0547 -12.0541 -12.0538 -12.0472 -12.0469 -12.0463
   -12.0442 -12.0433 -12.0432 -12.0432 -12.0423 -12.0354 -12.0325 -12.0312
    -3.2676  -3.2657  -3.2364  -3.2348  -3.0592  -3.0577  -3.0116  -3.0104
    -1.7255  -1.7216  -1.5500  -1.5463  -1.2929  -1.2913  -1.0784  -1.0770
     0.2969   0.2979   0.4907   0.4915   0.7723   0.7729   0.9034   0.9040
     5.2957   5.3097   5.5053   5.5159   5.7124   5.7259   5.8324   5.8345
     5.9972   6.0010   6.0883   6.0979   6.2760   6.2813   6.3251   6.3302
     6.5229   6.5361   6.6304   6.6379   6.7406   6.7512   6.8197   6.8292
     6.8790   6.8867   7.2051   7.2081   7.2457   7.2481   7.3823   7.3866
     7.4375   7.4391   7.7865   7.7873   7.8427   7.8462   8.0921   8.0958
     8.1604   8.1637   8.3270   8.3338   8.4033   8.4059   8.4797   8.4833
     8.6086   8.6194   8.9086   8.9105   9.0612   9.0654   9.2602   9.2662
     9.4041   9.4145  10.1230  10.1249  10.1901  10.1908  10.5831  10.6001

     occupation numbers 
     1.0000   1.0000   1.0000   1.0000   1.0000   1.0000   1.0000   1.0000
     1.0000   1.0000   1.0000   1.0000   1.0000   1.0000   1.0000   1.0000
     1.0000   1.0000   1.0000   1.0000   1.0000   1.0000   1.0000   1.0000
     1.0000   1.0000   1.0000   1.0000   1.0000   1.0000   1.0000   1.0000
     1.0000   1.0000   1.0000   1.0000   1.0000   1.0000   1.0000   1.0000
     1.0000   1.0000   1.0000   1.0000   1.0000   1.0000   1.0000   1.0000
     1.0000   1.0000   1.0000   1.0000   1.0000   1.0000   1.0000   1.0000
     1.0000   1.0000   1.0000   1.0000   1.0000   1.0000   1.0000   1.0000
     1.0000   1.0000   1.0000   1.0000   1.0000   1.0000   1.0000   1.0000
     1.0000   1.0000   1.0000   1.0000   1.0000   1.0000   1.0000   1.0000
     1.0000   1.0000   1.0000   1.0000   1.0000   1.0000   1.0000   1.0000
     1.0000   1.0000   1.0000   1.0000   1.0000   1.0000   1.0000   1.0000
     1.0000   1.0000   1.0000   1.0000   1.0000   1.0000   1.0000   1.0000
     1.0000   1.0000   1.0000   1.0000   1.0000   1.0000   1.0000   1.0000
     1.0000   1.0000   1.0000   1.0000   1.0000   1.0000   1.0000   1.0000
     1.0000   1.0000   1.0000   1.0000   1.0000   1.0000   1.0000   1.0000
     1.0000   1.0000   1.0000   1.0000   1.0000   1.0000   1.0000   1.0000
     1.0000   1.0000   1.0000   1.0000   1.0000   1.0000   1.0000   1.0000
     1.0000   1.0000   1.0000   1.0000   1.0000   1.0000   1.0000   1.0000
     1.0000   1.0000   1.0000   1.0000   1.0000   1.0000   1.0000   1.0000
     1.0000   1.0000   1.0000   1.0000   1.0000   1.0000   1.0000   1.0000
     1.0000   1.0000   1.0000   1.0000   1.0000   1.0000   1.0000   1.0000
     1.0000   1.0000   1.0000   1.0000   1.0000   1.0000   1.0000   1.0000
     1.0000   1.0000   1.0000   1.0000   1.0000   1.0000   1.0000   1.0000
     1.0000   1.0000   1.0000   1.0000   1.0000   1.0000   1.0000   1.0000
     1.0000   1.0000   1.0000   1.0000   1.0000   1.0000   1.0000   1.0000
     1.0000   1.0000   1.0000   1.0000   1.0000   1.0000   1.0000   1.0000
     1.0000   1.0000  -0.0000  -0.0000  -0.0000  -0.0000  -0.0000  -0.0000

          k = 0.0000 0.4619-0.0212 ( 36150 PWs)   bands (ev):

   -72.0113 -71.9973 -67.7803 -67.7637 -40.9015 -40.9011 -40.9006 -40.8878
   -40.8872 -40.8864 -36.4078 -36.4074 -36.3973 -36.3910 -36.3906 -36.3812
   -28.1158 -28.1144 -28.1141 -28.1106 -28.1090 -28.1087 -28.1076 -28.1026
   -28.0995 -28.0981 -28.0978 -28.0948 -28.0932 -28.0929 -28.0913 -28.0868
   -27.7034 -27.7026 -27.6993 -27.6986 -27.6842 -27.6835 -27.6813 -27.6801
   -27.6793 -27.6788 -27.6773 -27.6748 -27.6625 -27.6596 -27.6583 -27.6556
   -26.6518 -26.6513 -26.6510 -26.6487 -26.6480 -26.6458 -26.6451 -26.6448
   -26.6430 -26.6414 -26.6391 -26.6355 -26.6350 -26.6347 -26.6341 -26.6325
   -26.6319 -26.6300 -26.6293 -26.6289 -26.6272 -26.6256 -26.6228 -26.6183
   -26.2390 -26.2388 -26.2351 -26.2348 -26.2318 -26.2293 -26.2279 -26.2253
   -26.2199 -26.2196 -26.2158 -26.2155 -26.2130 -26.2108 -26.2100 -26.2088
   -26.2076 -26.2068 -26.2059 -26.2036 -26.1918 -26.1886 -26.1877 -26.1845
   -15.0519 -15.0449 -15.0425 -15.0411 -15.0408 -15.0395 -15.0335 -15.0326
   -15.0312 -15.0301 -15.0297 -15.0289 -15.0288 -15.0217 -15.0194 -15.0178
   -12.0778 -12.0733 -12.0665 -12.0654 -12.0648 -12.0620 -12.0609 -12.0597
   -12.0546 -12.0535 -12.0524 -12.0520 -12.0503 -12.0501 -12.0483 -12.0474
   -12.0416 -12.0407 -12.0397 -12.0389 -12.0380 -12.0365 -12.0289 -12.0270
    -2.3379  -2.3354  -2.3204  -2.3187  -2.1773  -2.1757  -2.1587  -2.1567
    -1.2795  -1.2710  -1.2413  -1.2336  -1.0807  -1.0755  -1.0186  -1.0128
    -0.3422  -0.3404  -0.2785  -0.2766  -0.1242  -0.1229  -0.0847  -0.0830
     4.5554   4.5577   4.6299   4.6357   4.9227   4.9267   4.9864   4.9875
     5.2077   5.2086   5.5875   5.5919   5.8203   5.8208   6.0491   6.0631
     6.1780   6.1790   6.3498   6.3516   6.3737   6.3753   6.5024   6.5098
     6.6201   6.6289   6.6835   6.6868   6.7172   6.7221   6.7894   6.7928
     6.8592   6.8623   6.9473   6.9499   7.1942   7.1950   7.3767   7.3793
     7.5074   7.5124   7.7723   7.7752   7.8922   7.9014   7.9745   7.9790
     8.1752   8.1854   8.2829   8.2846   8.7600   8.7606   9.0572   9.0635
     9.2639   9.2756  10.1530  10.1569  10.3630  10.3682  10.4011  10.4124

     occupation numbers 
     1.0000   1.0000   1.0000   1.0000   1.0000   1.0000   1.0000   1.0000
     1.0000   1.0000   1.0000   1.0000   1.0000   1.0000   1.0000   1.0000
     1.0000   1.0000   1.0000   1.0000   1.0000   1.0000   1.0000   1.0000
     1.0000   1.0000   1.0000   1.0000   1.0000   1.0000   1.0000   1.0000
     1.0000   1.0000   1.0000   1.0000   1.0000   1.0000   1.0000   1.0000
     1.0000   1.0000   1.0000   1.0000   1.0000   1.0000   1.0000   1.0000
     1.0000   1.0000   1.0000   1.0000   1.0000   1.0000   1.0000   1.0000
     1.0000   1.0000   1.0000   1.0000   1.0000   1.0000   1.0000   1.0000
     1.0000   1.0000   1.0000   1.0000   1.0000   1.0000   1.0000   1.0000
     1.0000   1.0000   1.0000   1.0000   1.0000   1.0000   1.0000   1.0000
     1.0000   1.0000   1.0000   1.0000   1.0000   1.0000   1.0000   1.0000
     1.0000   1.0000   1.0000   1.0000   1.0000   1.0000   1.0000   1.0000
     1.0000   1.0000   1.0000   1.0000   1.0000   1.0000   1.0000   1.0000
     1.0000   1.0000   1.0000   1.0000   1.0000   1.0000   1.0000   1.0000
     1.0000   1.0000   1.0000   1.0000   1.0000   1.0000   1.0000   1.0000
     1.0000   1.0000   1.0000   1.0000   1.0000   1.0000   1.0000   1.0000
     1.0000   1.0000   1.0000   1.0000   1.0000   1.0000   1.0000   1.0000
     1.0000   1.0000   1.0000   1.0000   1.0000   1.0000   1.0000   1.0000
     1.0000   1.0000   1.0000   1.0000   1.0000   1.0000   1.0000   1.0000
     1.0000   1.0000   1.0000   1.0000   1.0000   1.0000   1.0000   1.0000
     1.0000   1.0000   1.0000   1.0000   1.0000   1.0000   1.0000   1.0000
     1.0000   1.0000   1.0000   1.0000   1.0000   1.0000   1.0000   1.0000
     1.0000   1.0000   1.0000   1.0000   1.0000   1.0000   1.0000   1.0000
     1.0000   1.0000   1.0000   1.0000   1.0000   1.0000   1.0000   1.0000
     1.0000   1.0000   1.0000   1.0000   1.0000   1.0000   1.0000   1.0000
     1.0000   1.0000   1.0000   1.0000   1.0000   1.0000   1.0000   1.0000
     1.0000   1.0000   1.0000   1.0000   1.0000   1.0000   1.0000   1.0000
     1.0000   1.0000  -0.0000  -0.0000  -0.0000  -0.0000  -0.0000  -0.0000

          k = 0.0000-0.4619 0.0212 ( 36150 PWs)   bands (ev):

   -72.0113 -71.9973 -67.7803 -67.7637 -40.9015 -40.9011 -40.9006 -40.8878
   -40.8872 -40.8864 -36.4078 -36.4074 -36.3973 -36.3910 -36.3906 -36.3812
   -28.1158 -28.1144 -28.1141 -28.1106 -28.1090 -28.1087 -28.1076 -28.1026
   -28.0995 -28.0981 -28.0978 -28.0948 -28.0932 -28.0929 -28.0913 -28.0868
   -27.7034 -27.7026 -27.6993 -27.6986 -27.6842 -27.6835 -27.6813 -27.6801
   -27.6793 -27.6788 -27.6773 -27.6748 -27.6625 -27.6596 -27.6583 -27.6556
   -26.6518 -26.6513 -26.6509 -26.6488 -26.6480 -26.6458 -26.6451 -26.6448
   -26.6430 -26.6414 -26.6391 -26.6355 -26.6350 -26.6347 -26.6341 -26.6325
   -26.6319 -26.6300 -26.6293 -26.6289 -26.6272 -26.6256 -26.6228 -26.6183
   -26.2390 -26.2388 -26.2351 -26.2348 -26.2318 -26.2293 -26.2279 -26.2253
   -26.2199 -26.2197 -26.2158 -26.2155 -26.2130 -26.2108 -26.2100 -26.2088
   -26.2076 -26.2068 -26.2059 -26.2036 -26.1918 -26.1886 -26.1877 -26.1845
   -15.0520 -15.0449 -15.0425 -15.0411 -15.0408 -15.0395 -15.0335 -15.0326
   -15.0312 -15.0301 -15.0297 -15.0289 -15.0288 -15.0217 -15.0194 -15.0178
   -12.0778 -12.0733 -12.0665 -12.0654 -12.0648 -12.0620 -12.0610 -12.0597
   -12.0546 -12.0535 -12.0524 -12.0520 -12.0503 -12.0502 -12.0483 -12.0474
   -12.0416 -12.0407 -12.0397 -12.0389 -12.0380 -12.0365 -12.0289 -12.0270
    -2.3379  -2.3354  -2.3205  -2.3187  -2.1773  -2.1757  -2.1586  -2.1568
    -1.2795  -1.2710  -1.2413  -1.2336  -1.0807  -1.0755  -1.0186  -1.0128
    -0.3422  -0.3404  -0.2785  -0.2766  -0.1242  -0.1229  -0.0847  -0.0830
     4.5553   4.5577   4.6299   4.6357   4.9226   4.9267   4.9864   4.9875
     5.2078   5.2086   5.5875   5.5919   5.8204   5.8207   6.0491   6.0631
     6.1780   6.1790   6.3499   6.3517   6.3736   6.3753   6.5024   6.5098
     6.6201   6.6289   6.6835   6.6868   6.7172   6.7221   6.7894   6.7928
     6.8592   6.8623   6.9473   6.9499   7.1942   7.1950   7.3767   7.3793
     7.5074   7.5124   7.7723   7.7751   7.8922   7.9014   7.9745   7.9790
     8.1752   8.1854   8.2829   8.2846   8.7600   8.7606   9.0572   9.0635
     9.2639   9.2756  10.1530  10.1570  10.3631  10.3686  10.4015  10.4126

     occupation numbers 
     1.0000   1.0000   1.0000   1.0000   1.0000   1.0000   1.0000   1.0000
     1.0000   1.0000   1.0000   1.0000   1.0000   1.0000   1.0000   1.0000
     1.0000   1.0000   1.0000   1.0000   1.0000   1.0000   1.0000   1.0000
     1.0000   1.0000   1.0000   1.0000   1.0000   1.0000   1.0000   1.0000
     1.0000   1.0000   1.0000   1.0000   1.0000   1.0000   1.0000   1.0000
     1.0000   1.0000   1.0000   1.0000   1.0000   1.0000   1.0000   1.0000
     1.0000   1.0000   1.0000   1.0000   1.0000   1.0000   1.0000   1.0000
     1.0000   1.0000   1.0000   1.0000   1.0000   1.0000   1.0000   1.0000
     1.0000   1.0000   1.0000   1.0000   1.0000   1.0000   1.0000   1.0000
     1.0000   1.0000   1.0000   1.0000   1.0000   1.0000   1.0000   1.0000
     1.0000   1.0000   1.0000   1.0000   1.0000   1.0000   1.0000   1.0000
     1.0000   1.0000   1.0000   1.0000   1.0000   1.0000   1.0000   1.0000
     1.0000   1.0000   1.0000   1.0000   1.0000   1.0000   1.0000   1.0000
     1.0000   1.0000   1.0000   1.0000   1.0000   1.0000   1.0000   1.0000
     1.0000   1.0000   1.0000   1.0000   1.0000   1.0000   1.0000   1.0000
     1.0000   1.0000   1.0000   1.0000   1.0000   1.0000   1.0000   1.0000
     1.0000   1.0000   1.0000   1.0000   1.0000   1.0000   1.0000   1.0000
     1.0000   1.0000   1.0000   1.0000   1.0000   1.0000   1.0000   1.0000
     1.0000   1.0000   1.0000   1.0000   1.0000   1.0000   1.0000   1.0000
     1.0000   1.0000   1.0000   1.0000   1.0000   1.0000   1.0000   1.0000
     1.0000   1.0000   1.0000   1.0000   1.0000   1.0000   1.0000   1.0000
     1.0000   1.0000   1.0000   1.0000   1.0000   1.0000   1.0000   1.0000
     1.0000   1.0000   1.0000   1.0000   1.0000   1.0000   1.0000   1.0000
     1.0000   1.0000   1.0000   1.0000   1.0000   1.0000   1.0000   1.0000
     1.0000   1.0000   1.0000   1.0000   1.0000   1.0000   1.0000   1.0000
     1.0000   1.0000   1.0000   1.0000   1.0000   1.0000   1.0000   1.0000
     1.0000   1.0000   1.0000   1.0000   1.0000   1.0000   1.0000   1.0000
     1.0000   1.0000  -0.0000  -0.0000  -0.0000  -0.0000  -0.0000  -0.0000

          k = 0.0000-0.2309 0.0106 ( 36190 PWs)   bands (ev):

   -72.0113 -71.9973 -67.7803 -67.7638 -40.9013 -40.9010 -40.9005 -40.8876
   -40.8871 -40.8864 -36.4074 -36.4073 -36.3973 -36.3907 -36.3905 -36.3813
   -28.1160 -28.1145 -28.1144 -28.1104 -28.1092 -28.1088 -28.1079 -28.1029
   -28.0997 -28.0982 -28.0981 -28.0946 -28.0934 -28.0931 -28.0916 -28.0871
   -27.7034 -27.7027 -27.6994 -27.6986 -27.6843 -27.6836 -27.6816 -27.6801
   -27.6793 -27.6791 -27.6776 -27.6751 -27.6628 -27.6599 -27.6586 -27.6558
   -26.6518 -26.6516 -26.6512 -26.6489 -26.6484 -26.6457 -26.6455 -26.6446
   -26.6435 -26.6413 -26.6395 -26.6355 -26.6353 -26.6350 -26.6345 -26.6327
   -26.6322 -26.6299 -26.6296 -26.6287 -26.6277 -26.6256 -26.6232 -26.6187
   -26.2392 -26.2390 -26.2352 -26.2349 -26.2319 -26.2294 -26.2278 -26.2252
   -26.2201 -26.2198 -26.2159 -26.2156 -26.2130 -26.2113 -26.2101 -26.2087
   -26.2081 -26.2073 -26.2058 -26.2040 -26.1923 -26.1891 -26.1881 -26.1850
   -15.0535 -15.0460 -15.0423 -15.0423 -15.0411 -15.0410 -15.0347 -15.0337
   -15.0311 -15.0304 -15.0300 -15.0297 -15.0288 -15.0228 -15.0193 -15.0178
   -12.0769 -12.0701 -12.0665 -12.0656 -12.0645 -12.0588 -12.0585 -12.0577
   -12.0555 -12.0552 -12.0546 -12.0541 -12.0538 -12.0472 -12.0469 -12.0463
   -12.0443 -12.0433 -12.0432 -12.0431 -12.0424 -12.0354 -12.0324 -12.0313
    -3.2676  -3.2657  -3.2364  -3.2348  -3.0592  -3.0577  -3.0116  -3.0104
    -1.7255  -1.7216  -1.5500  -1.5463  -1.2929  -1.2913  -1.0784  -1.0770
     0.2969   0.2979   0.4907   0.4915   0.7723   0.7729   0.9034   0.9040
     5.2957   5.3097   5.5053   5.5159   5.7124   5.7259   5.8325   5.8344
     5.9972   6.0010   6.0883   6.0979   6.2760   6.2813   6.3251   6.3301
     6.5229   6.5361   6.6304   6.6379   6.7406   6.7512   6.8197   6.8292
     6.8790   6.8867   7.2051   7.2081   7.2457   7.2481   7.3823   7.3867
     7.4375   7.4391   7.7865   7.7873   7.8427   7.8462   8.0921   8.0958
     8.1604   8.1637   8.3269   8.3338   8.4034   8.4059   8.4797   8.4832
     8.6086   8.6194   8.9086   8.9105   9.0612   9.0654   9.2601   9.2663
     9.4041   9.4145  10.1228  10.1249  10.1901  10.1908  10.5845  10.5963

     occupation numbers 
     1.0000   1.0000   1.0000   1.0000   1.0000   1.0000   1.0000   1.0000
     1.0000   1.0000   1.0000   1.0000   1.0000   1.0000   1.0000   1.0000
     1.0000   1.0000   1.0000   1.0000   1.0000   1.0000   1.0000   1.0000
     1.0000   1.0000   1.0000   1.0000   1.0000   1.0000   1.0000   1.0000
     1.0000   1.0000   1.0000   1.0000   1.0000   1.0000   1.0000   1.0000
     1.0000   1.0000   1.0000   1.0000   1.0000   1.0000   1.0000   1.0000
     1.0000   1.0000   1.0000   1.0000   1.0000   1.0000   1.0000   1.0000
     1.0000   1.0000   1.0000   1.0000   1.0000   1.0000   1.0000   1.0000
     1.0000   1.0000   1.0000   1.0000   1.0000   1.0000   1.0000   1.0000
     1.0000   1.0000   1.0000   1.0000   1.0000   1.0000   1.0000   1.0000
     1.0000   1.0000   1.0000   1.0000   1.0000   1.0000   1.0000   1.0000
     1.0000   1.0000   1.0000   1.0000   1.0000   1.0000   1.0000   1.0000
     1.0000   1.0000   1.0000   1.0000   1.0000   1.0000   1.0000   1.0000
     1.0000   1.0000   1.0000   1.0000   1.0000   1.0000   1.0000   1.0000
     1.0000   1.0000   1.0000   1.0000   1.0000   1.0000   1.0000   1.0000
     1.0000   1.0000   1.0000   1.0000   1.0000   1.0000   1.0000   1.0000
     1.0000   1.0000   1.0000   1.0000   1.0000   1.0000   1.0000   1.0000
     1.0000   1.0000   1.0000   1.0000   1.0000   1.0000   1.0000   1.0000
     1.0000   1.0000   1.0000   1.0000   1.0000   1.0000   1.0000   1.0000
     1.0000   1.0000   1.0000   1.0000   1.0000   1.0000   1.0000   1.0000
     1.0000   1.0000   1.0000   1.0000   1.0000   1.0000   1.0000   1.0000
     1.0000   1.0000   1.0000   1.0000   1.0000   1.0000   1.0000   1.0000
     1.0000   1.0000   1.0000   1.0000   1.0000   1.0000   1.0000   1.0000
     1.0000   1.0000   1.0000   1.0000   1.0000   1.0000   1.0000   1.0000
     1.0000   1.0000   1.0000   1.0000   1.0000   1.0000   1.0000   1.0000
     1.0000   1.0000   1.0000   1.0000   1.0000   1.0000   1.0000   1.0000
     1.0000   1.0000   1.0000   1.0000   1.0000   1.0000   1.0000   1.0000
     1.0000   1.0000  -0.0000  -0.0000  -0.0000  -0.0000  -0.0000  -0.0000

          k = 0.2000 0.1155 0.0106 ( 36190 PWs)   bands (ev):

   -72.0113 -71.9973 -67.7803 -67.7638 -40.9013 -40.9010 -40.9005 -40.8876
   -40.8871 -40.8864 -36.4075 -36.4072 -36.3973 -36.3907 -36.3905 -36.3813
   -28.1160 -28.1145 -28.1144 -28.1104 -28.1093 -28.1088 -28.1079 -28.1029
   -28.0997 -28.0982 -28.0981 -28.0946 -28.0934 -28.0931 -28.0916 -28.0871
   -27.7034 -27.7027 -27.6994 -27.6986 -27.6843 -27.6836 -27.6816 -27.6802
   -27.6793 -27.6791 -27.6776 -27.6751 -27.6628 -27.6599 -27.6586 -27.6558
   -26.6518 -26.6516 -26.6512 -26.6489 -26.6484 -26.6458 -26.6454 -26.6447
   -26.6435 -26.6413 -26.6395 -26.6355 -26.6353 -26.6350 -26.6345 -26.6327
   -26.6322 -26.6299 -26.6297 -26.6287 -26.6277 -26.6256 -26.6232 -26.6187
   -26.2392 -26.2390 -26.2352 -26.2349 -26.2319 -26.2294 -26.2278 -26.2252
   -26.2201 -26.2198 -26.2159 -26.2156 -26.2130 -26.2113 -26.2101 -26.2087
   -26.2081 -26.2073 -26.2058 -26.2040 -26.1923 -26.1891 -26.1881 -26.1850
   -15.0535 -15.0460 -15.0424 -15.0423 -15.0411 -15.0410 -15.0346 -15.0337
   -15.0311 -15.0304 -15.0300 -15.0297 -15.0288 -15.0228 -15.0192 -15.0178
   -12.0769 -12.0701 -12.0665 -12.0656 -12.0645 -12.0588 -12.0585 -12.0577
   -12.0555 -12.0552 -12.0546 -12.0541 -12.0538 -12.0472 -12.0469 -12.0463
   -12.0442 -12.0433 -12.0432 -12.0432 -12.0423 -12.0354 -12.0325 -12.0313
    -3.2676  -3.2657  -3.2364  -3.2348  -3.0592  -3.0577  -3.0116  -3.0104
    -1.7255  -1.7216  -1.5500  -1.5463  -1.2929  -1.2913  -1.0784  -1.0770
     0.2969   0.2979   0.4907   0.4915   0.7723   0.7729   0.9034   0.9040
     5.2957   5.3097   5.5053   5.5159   5.7124   5.7260   5.8324   5.8345
     5.9972   6.0011   6.0883   6.0979   6.2760   6.2813   6.3251   6.3302
     6.5228   6.5361   6.6304   6.6379   6.7406   6.7512   6.8197   6.8292
     6.8790   6.8867   7.2051   7.2081   7.2457   7.2481   7.3823   7.3866
     7.4375   7.4391   7.7865   7.7874   7.8427   7.8462   8.0921   8.0958
     8.1604   8.1637   8.3270   8.3338   8.4033   8.4059   8.4797   8.4833
     8.6086   8.6194   8.9086   8.9105   9.0612   9.0654   9.2601   9.2663
     9.4041   9.4145  10.1231  10.1249  10.1902  10.1908  10.5823  10.5981

     occupation numbers 
     1.0000   1.0000   1.0000   1.0000   1.0000   1.0000   1.0000   1.0000
     1.0000   1.0000   1.0000   1.0000   1.0000   1.0000   1.0000   1.0000
     1.0000   1.0000   1.0000   1.0000   1.0000   1.0000   1.0000   1.0000
     1.0000   1.0000   1.0000   1.0000   1.0000   1.0000   1.0000   1.0000
     1.0000   1.0000   1.0000   1.0000   1.0000   1.0000   1.0000   1.0000
     1.0000   1.0000   1.0000   1.0000   1.0000   1.0000   1.0000   1.0000
     1.0000   1.0000   1.0000   1.0000   1.0000   1.0000   1.0000   1.0000
     1.0000   1.0000   1.0000   1.0000   1.0000   1.0000   1.0000   1.0000
     1.0000   1.0000   1.0000   1.0000   1.0000   1.0000   1.0000   1.0000
     1.0000   1.0000   1.0000   1.0000   1.0000   1.0000   1.0000   1.0000
     1.0000   1.0000   1.0000   1.0000   1.0000   1.0000   1.0000   1.0000
     1.0000   1.0000   1.0000   1.0000   1.0000   1.0000   1.0000   1.0000
     1.0000   1.0000   1.0000   1.0000   1.0000   1.0000   1.0000   1.0000
     1.0000   1.0000   1.0000   1.0000   1.0000   1.0000   1.0000   1.0000
     1.0000   1.0000   1.0000   1.0000   1.0000   1.0000   1.0000   1.0000
     1.0000   1.0000   1.0000   1.0000   1.0000   1.0000   1.0000   1.0000
     1.0000   1.0000   1.0000   1.0000   1.0000   1.0000   1.0000   1.0000
     1.0000   1.0000   1.0000   1.0000   1.0000   1.0000   1.0000   1.0000
     1.0000   1.0000   1.0000   1.0000   1.0000   1.0000   1.0000   1.0000
     1.0000   1.0000   1.0000   1.0000   1.0000   1.0000   1.0000   1.0000
     1.0000   1.0000   1.0000   1.0000   1.0000   1.0000   1.0000   1.0000
     1.0000   1.0000   1.0000   1.0000   1.0000   1.0000   1.0000   1.0000
     1.0000   1.0000   1.0000   1.0000   1.0000   1.0000   1.0000   1.0000
     1.0000   1.0000   1.0000   1.0000   1.0000   1.0000   1.0000   1.0000
     1.0000   1.0000   1.0000   1.0000   1.0000   1.0000   1.0000   1.0000
     1.0000   1.0000   1.0000   1.0000   1.0000   1.0000   1.0000   1.0000
     1.0000   1.0000   1.0000   1.0000   1.0000   1.0000   1.0000   1.0000
     1.0000   1.0000  -0.0000  -0.0000  -0.0000  -0.0000  -0.0000  -0.0000

          k = 0.2000 0.3464-0.0000 ( 36176 PWs)   bands (ev):

   -72.0113 -71.9973 -67.7803 -67.7638 -40.9015 -40.9011 -40.9006 -40.8878
   -40.8872 -40.8864 -36.4077 -36.4074 -36.3973 -36.3909 -36.3906 -36.3812
   -28.1159 -28.1143 -28.1141 -28.1106 -28.1089 -28.1088 -28.1076 -28.1026
   -28.0995 -28.0981 -28.0979 -28.0947 -28.0932 -28.0930 -28.0914 -28.0868
   -27.7034 -27.7026 -27.6993 -27.6986 -27.6843 -27.6835 -27.6814 -27.6801
   -27.6793 -27.6789 -27.6774 -27.6749 -27.6625 -27.6597 -27.6584 -27.6556
   -26.6518 -26.6514 -26.6509 -26.6488 -26.6481 -26.6456 -26.6454 -26.6449
   -26.6430 -26.6414 -26.6392 -26.6355 -26.6350 -26.6348 -26.6341 -26.6326
   -26.6319 -26.6299 -26.6294 -26.6286 -26.6274 -26.6257 -26.6229 -26.6184
   -26.2390 -26.2389 -26.2351 -26.2347 -26.2318 -26.2293 -26.2278 -26.2253
   -26.2199 -26.2197 -26.2159 -26.2155 -26.2129 -26.2109 -26.2101 -26.2088
   -26.2077 -26.2069 -26.2059 -26.2037 -26.1919 -26.1887 -26.1878 -26.1846
   -15.0525 -15.0446 -15.0424 -15.0414 -15.0413 -15.0395 -15.0332 -15.0326
   -15.0312 -15.0305 -15.0300 -15.0289 -15.0289 -15.0218 -15.0197 -15.0179
   -12.0758 -12.0713 -12.0663 -12.0646 -12.0644 -12.0602 -12.0600 -12.0597
   -12.0549 -12.0538 -12.0531 -12.0523 -12.0517 -12.0488 -12.0487 -12.0480
   -12.0418 -12.0411 -12.0408 -12.0408 -12.0398 -12.0371 -12.0303 -12.0288
    -2.6158  -2.6138  -2.5887  -2.5869  -2.4332  -2.4316  -2.3926  -2.3911
    -1.3542  -1.3506  -1.2207  -1.2172  -1.0731  -1.0705  -0.9244  -0.9219
    -0.1296  -0.1277  -0.0511  -0.0488   0.0637   0.0653   0.1118   0.1137
     4.9750   4.9835   5.0447   5.0506   5.0973   5.1023   5.2585   5.2679
     5.3947   5.3959   5.6126   5.6162   5.6860   5.6877   5.8102   5.8143
     6.0450   6.0523   6.0726   6.0778   6.2609   6.2674   6.4102   6.4126
     6.5061   6.5124   6.6329   6.6424   6.6939   6.6998   6.8054   6.8092
     6.8662   6.8710   7.1666   7.1689   7.3494   7.3525   7.5215   7.5277
     7.5444   7.5473   7.8111   7.8121   7.9853   7.9878   8.1549   8.1567
     8.3718   8.3761   8.5163   8.5245   8.7034   8.7073   9.0939   9.1043
     9.3669   9.3772  10.3066  10.3089  10.5134  10.5147  10.6759  10.6829

     occupation numbers 
     1.0000   1.0000   1.0000   1.0000   1.0000   1.0000   1.0000   1.0000
     1.0000   1.0000   1.0000   1.0000   1.0000   1.0000   1.0000   1.0000
     1.0000   1.0000   1.0000   1.0000   1.0000   1.0000   1.0000   1.0000
     1.0000   1.0000   1.0000   1.0000   1.0000   1.0000   1.0000   1.0000
     1.0000   1.0000   1.0000   1.0000   1.0000   1.0000   1.0000   1.0000
     1.0000   1.0000   1.0000   1.0000   1.0000   1.0000   1.0000   1.0000
     1.0000   1.0000   1.0000   1.0000   1.0000   1.0000   1.0000   1.0000
     1.0000   1.0000   1.0000   1.0000   1.0000   1.0000   1.0000   1.0000
     1.0000   1.0000   1.0000   1.0000   1.0000   1.0000   1.0000   1.0000
     1.0000   1.0000   1.0000   1.0000   1.0000   1.0000   1.0000   1.0000
     1.0000   1.0000   1.0000   1.0000   1.0000   1.0000   1.0000   1.0000
     1.0000   1.0000   1.0000   1.0000   1.0000   1.0000   1.0000   1.0000
     1.0000   1.0000   1.0000   1.0000   1.0000   1.0000   1.0000   1.0000
     1.0000   1.0000   1.0000   1.0000   1.0000   1.0000   1.0000   1.0000
     1.0000   1.0000   1.0000   1.0000   1.0000   1.0000   1.0000   1.0000
     1.0000   1.0000   1.0000   1.0000   1.0000   1.0000   1.0000   1.0000
     1.0000   1.0000   1.0000   1.0000   1.0000   1.0000   1.0000   1.0000
     1.0000   1.0000   1.0000   1.0000   1.0000   1.0000   1.0000   1.0000
     1.0000   1.0000   1.0000   1.0000   1.0000   1.0000   1.0000   1.0000
     1.0000   1.0000   1.0000   1.0000   1.0000   1.0000   1.0000   1.0000
     1.0000   1.0000   1.0000   1.0000   1.0000   1.0000   1.0000   1.0000
     1.0000   1.0000   1.0000   1.0000   1.0000   1.0000   1.0000   1.0000
     1.0000   1.0000   1.0000   1.0000   1.0000   1.0000   1.0000   1.0000
     1.0000   1.0000   1.0000   1.0000   1.0000   1.0000   1.0000   1.0000
     1.0000   1.0000   1.0000   1.0000   1.0000   1.0000   1.0000   1.0000
     1.0000   1.0000   1.0000   1.0000   1.0000   1.0000   1.0000   1.0000
     1.0000   1.0000   1.0000   1.0000   1.0000   1.0000   1.0000   1.0000
     1.0000   1.0000  -0.0000  -0.0000  -0.0000  -0.0000  -0.0000  -0.0000

          k = 0.2000 0.5774-0.0106 ( 36145 PWs)   bands (ev):

   -72.0113 -71.9973 -67.7803 -67.7637 -40.9015 -40.9011 -40.9006 -40.8878
   -40.8873 -40.8864 -36.4078 -36.4075 -36.3973 -36.3910 -36.3907 -36.3812
   -28.1158 -28.1142 -28.1140 -28.1107 -28.1089 -28.1087 -28.1075 -28.1025
   -28.0995 -28.0980 -28.0978 -28.0947 -28.0931 -28.0928 -28.0912 -28.0867
   -27.7033 -27.7026 -27.6993 -27.6986 -27.6842 -27.6834 -27.6813 -27.6801
   -27.6793 -27.6787 -27.6772 -27.6747 -27.6624 -27.6596 -27.6582 -27.6555
   -26.6518 -26.6513 -26.6507 -26.6487 -26.6478 -26.6458 -26.6453 -26.6449
   -26.6427 -26.6414 -26.6389 -26.6356 -26.6350 -26.6345 -26.6339 -26.6324
   -26.6316 -26.6300 -26.6293 -26.6285 -26.6272 -26.6258 -26.6228 -26.6182
   -26.2389 -26.2388 -26.2351 -26.2347 -26.2318 -26.2293 -26.2279 -26.2253
   -26.2198 -26.2196 -26.2158 -26.2154 -26.2129 -26.2107 -26.2100 -26.2088
   -26.2075 -26.2067 -26.2059 -26.2035 -26.1917 -26.1885 -26.1876 -26.1844
   -15.0520 -15.0437 -15.0422 -15.0417 -15.0408 -15.0385 -15.0323 -15.0320
   -15.0310 -15.0309 -15.0304 -15.0288 -15.0279 -15.0211 -15.0202 -15.0178
   -12.0764 -12.0700 -12.0671 -12.0650 -12.0642 -12.0608 -12.0608 -12.0587
   -12.0559 -12.0535 -12.0518 -12.0517 -12.0506 -12.0499 -12.0495 -12.0483
   -12.0409 -12.0405 -12.0395 -12.0393 -12.0382 -12.0374 -12.0287 -12.0272
    -1.7013  -1.6954  -1.6938  -1.6878  -1.6598  -1.6550  -1.6391  -1.6326
    -1.2208  -1.2136  -1.1957  -1.1925  -1.1156  -1.1115  -1.0882  -1.0803
    -0.7089  -0.7046  -0.6992  -0.6945  -0.6290  -0.6252  -0.6176  -0.6133
     4.6074   4.6110   4.6297   4.6349   4.8527   4.8575   5.0030   5.0099
     5.1864   5.1911   5.2605   5.2653   5.4301   5.4355   5.4689   5.4727
     5.6991   5.7092   5.8567   5.8661   6.0022   6.0093   6.1405   6.1453
     6.3470   6.3511   6.4195   6.4262   6.6073   6.6097   6.6754   6.6788
     6.7350   6.7465   6.7993   6.8029   7.0350   7.0393   7.1707   7.1736
     7.2924   7.2936   7.4670   7.4695   7.6494   7.6518   7.9509   7.9536
     8.0947   8.0961   8.2086   8.2144   8.4644   8.4717   8.9464   8.9553
     9.2178   9.2273  10.3259  10.3269  10.5222  10.5234  10.7288  10.7422

     occupation numbers 
     1.0000   1.0000   1.0000   1.0000   1.0000   1.0000   1.0000   1.0000
     1.0000   1.0000   1.0000   1.0000   1.0000   1.0000   1.0000   1.0000
     1.0000   1.0000   1.0000   1.0000   1.0000   1.0000   1.0000   1.0000
     1.0000   1.0000   1.0000   1.0000   1.0000   1.0000   1.0000   1.0000
     1.0000   1.0000   1.0000   1.0000   1.0000   1.0000   1.0000   1.0000
     1.0000   1.0000   1.0000   1.0000   1.0000   1.0000   1.0000   1.0000
     1.0000   1.0000   1.0000   1.0000   1.0000   1.0000   1.0000   1.0000
     1.0000   1.0000   1.0000   1.0000   1.0000   1.0000   1.0000   1.0000
     1.0000   1.0000   1.0000   1.0000   1.0000   1.0000   1.0000   1.0000
     1.0000   1.0000   1.0000   1.0000   1.0000   1.0000   1.0000   1.0000
     1.0000   1.0000   1.0000   1.0000   1.0000   1.0000   1.0000   1.0000
     1.0000   1.0000   1.0000   1.0000   1.0000   1.0000   1.0000   1.0000
     1.0000   1.0000   1.0000   1.0000   1.0000   1.0000   1.0000   1.0000
     1.0000   1.0000   1.0000   1.0000   1.0000   1.0000   1.0000   1.0000
     1.0000   1.0000   1.0000   1.0000   1.0000   1.0000   1.0000   1.0000
     1.0000   1.0000   1.0000   1.0000   1.0000   1.0000   1.0000   1.0000
     1.0000   1.0000   1.0000   1.0000   1.0000   1.0000   1.0000   1.0000
     1.0000   1.0000   1.0000   1.0000   1.0000   1.0000   1.0000   1.0000
     1.0000   1.0000   1.0000   1.0000   1.0000   1.0000   1.0000   1.0000
     1.0000   1.0000   1.0000   1.0000   1.0000   1.0000   1.0000   1.0000
     1.0000   1.0000   1.0000   1.0000   1.0000   1.0000   1.0000   1.0000
     1.0000   1.0000   1.0000   1.0000   1.0000   1.0000   1.0000   1.0000
     1.0000   1.0000   1.0000   1.0000   1.0000   1.0000   1.0000   1.0000
     1.0000   1.0000   1.0000   1.0000   1.0000   1.0000   1.0000   1.0000
     1.0000   1.0000   1.0000   1.0000   1.0000   1.0000   1.0000   1.0000
     1.0000   1.0000   1.0000   1.0000   1.0000   1.0000   1.0000   1.0000
     1.0000   1.0000   1.0000   1.0000   1.0000   1.0000   1.0000   1.0000
     1.0000   1.0000  -0.0000  -0.0000  -0.0000  -0.0000  -0.0000  -0.0000

          k = 0.2000-0.3464 0.0318 ( 36158 PWs)   bands (ev):

   -72.0113 -71.9973 -67.7803 -67.7638 -40.9013 -40.9011 -40.9006 -40.8877
   -40.8873 -40.8864 -36.4077 -36.4074 -36.3973 -36.3909 -36.3906 -36.3812
   -28.1159 -28.1144 -28.1141 -28.1106 -28.1089 -28.1088 -28.1077 -28.1026
   -28.0995 -28.0981 -28.0979 -28.0947 -28.0932 -28.0929 -28.0914 -28.0868
   -27.7034 -27.7026 -27.6993 -27.6986 -27.6843 -27.6835 -27.6814 -27.6801
   -27.6793 -27.6789 -27.6774 -27.6749 -27.6625 -27.6597 -27.6584 -27.6556
   -26.6518 -26.6514 -26.6509 -26.6489 -26.6481 -26.6456 -26.6453 -26.6450
   -26.6430 -26.6414 -26.6392 -26.6356 -26.6350 -26.6348 -26.6341 -26.6326
   -26.6319 -26.6299 -26.6294 -26.6286 -26.6274 -26.6257 -26.6229 -26.6184
   -26.2390 -26.2388 -26.2351 -26.2347 -26.2318 -26.2293 -26.2278 -26.2253
   -26.2199 -26.2197 -26.2159 -26.2155 -26.2129 -26.2109 -26.2101 -26.2088
   -26.2077 -26.2069 -26.2059 -26.2037 -26.1919 -26.1887 -26.1878 -26.1846
   -15.0525 -15.0445 -15.0425 -15.0414 -15.0413 -15.0394 -15.0332 -15.0326
   -15.0312 -15.0306 -15.0300 -15.0289 -15.0288 -15.0218 -15.0198 -15.0179
   -12.0757 -12.0713 -12.0663 -12.0645 -12.0645 -12.0600 -12.0600 -12.0596
   -12.0550 -12.0538 -12.0531 -12.0523 -12.0516 -12.0487 -12.0487 -12.0481
   -12.0418 -12.0410 -12.0409 -12.0408 -12.0399 -12.0372 -12.0302 -12.0290
    -2.6143  -2.6123  -2.5910  -2.5893  -2.4294  -2.4279  -2.3957  -2.3942
    -1.3464  -1.3421  -1.2408  -1.2369  -1.0517  -1.0489  -0.9347  -0.9318
    -0.1235  -0.1214  -0.0599  -0.0580   0.0700   0.0712   0.1089   0.1110
     4.9767   4.9859   5.0400   5.0464   5.0984   5.1045   5.2524   5.2619
     5.4148   5.4163   5.5995   5.6023   5.6835   5.6867   5.8109   5.8149
     6.0173   6.0249   6.0879   6.0943   6.2791   6.2847   6.4115   6.4133
     6.5073   6.5125   6.6326   6.6417   6.6971   6.7016   6.7877   6.7946
     6.8861   6.8916   7.1804   7.1828   7.3324   7.3354   7.4706   7.4756
     7.5218   7.5247   7.8897   7.8920   7.9837   7.9864   8.1995   8.2012
     8.3457   8.3505   8.4807   8.4880   8.7041   8.7069   9.0864   9.0969
     9.3735   9.3836  10.3110  10.3140  10.5218  10.5234  10.6919  10.6958

     occupation numbers 
     1.0000   1.0000   1.0000   1.0000   1.0000   1.0000   1.0000   1.0000
     1.0000   1.0000   1.0000   1.0000   1.0000   1.0000   1.0000   1.0000
     1.0000   1.0000   1.0000   1.0000   1.0000   1.0000   1.0000   1.0000
     1.0000   1.0000   1.0000   1.0000   1.0000   1.0000   1.0000   1.0000
     1.0000   1.0000   1.0000   1.0000   1.0000   1.0000   1.0000   1.0000
     1.0000   1.0000   1.0000   1.0000   1.0000   1.0000   1.0000   1.0000
     1.0000   1.0000   1.0000   1.0000   1.0000   1.0000   1.0000   1.0000
     1.0000   1.0000   1.0000   1.0000   1.0000   1.0000   1.0000   1.0000
     1.0000   1.0000   1.0000   1.0000   1.0000   1.0000   1.0000   1.0000
     1.0000   1.0000   1.0000   1.0000   1.0000   1.0000   1.0000   1.0000
     1.0000   1.0000   1.0000   1.0000   1.0000   1.0000   1.0000   1.0000
     1.0000   1.0000   1.0000   1.0000   1.0000   1.0000   1.0000   1.0000
     1.0000   1.0000   1.0000   1.0000   1.0000   1.0000   1.0000   1.0000
     1.0000   1.0000   1.0000   1.0000   1.0000   1.0000   1.0000   1.0000
     1.0000   1.0000   1.0000   1.0000   1.0000   1.0000   1.0000   1.0000
     1.0000   1.0000   1.0000   1.0000   1.0000   1.0000   1.0000   1.0000
     1.0000   1.0000   1.0000   1.0000   1.0000   1.0000   1.0000   1.0000
     1.0000   1.0000   1.0000   1.0000   1.0000   1.0000   1.0000   1.0000
     1.0000   1.0000   1.0000   1.0000   1.0000   1.0000   1.0000   1.0000
     1.0000   1.0000   1.0000   1.0000   1.0000   1.0000   1.0000   1.0000
     1.0000   1.0000   1.0000   1.0000   1.0000   1.0000   1.0000   1.0000
     1.0000   1.0000   1.0000   1.0000   1.0000   1.0000   1.0000   1.0000
     1.0000   1.0000   1.0000   1.0000   1.0000   1.0000   1.0000   1.0000
     1.0000   1.0000   1.0000   1.0000   1.0000   1.0000   1.0000   1.0000
     1.0000   1.0000   1.0000   1.0000   1.0000   1.0000   1.0000   1.0000
     1.0000   1.0000   1.0000   1.0000   1.0000   1.0000   1.0000   1.0000
     1.0000   1.0000   1.0000   1.0000   1.0000   1.0000   1.0000   1.0000
     1.0000   1.0000  -0.0000  -0.0000  -0.0000  -0.0000  -0.0000  -0.0000

          k = 0.2000-0.1155 0.0212 ( 36218 PWs)   bands (ev):

   -72.0113 -71.9973 -67.7803 -67.7638 -40.9012 -40.9011 -40.9006 -40.8875
   -40.8872 -40.8864 -36.4074 -36.4073 -36.3973 -36.3906 -36.3905 -36.3813
   -28.1160 -28.1145 -28.1143 -28.1104 -28.1093 -28.1088 -28.1079 -28.1029
   -28.0997 -28.0983 -28.0980 -28.0946 -28.0934 -28.0931 -28.0916 -28.0871
   -27.7034 -27.7027 -27.6994 -27.6986 -27.6843 -27.6836 -27.6816 -27.6801
   -27.6793 -27.6791 -27.6776 -27.6751 -27.6628 -27.6599 -27.6586 -27.6558
   -26.6519 -26.6516 -26.6512 -26.6489 -26.6484 -26.6457 -26.6454 -26.6447
   -26.6435 -26.6413 -26.6395 -26.6356 -26.6353 -26.6350 -26.6345 -26.6327
   -26.6323 -26.6299 -26.6296 -26.6287 -26.6277 -26.6256 -26.6232 -26.6187
   -26.2392 -26.2390 -26.2352 -26.2349 -26.2319 -26.2294 -26.2278 -26.2252
   -26.2201 -26.2198 -26.2159 -26.2156 -26.2130 -26.2113 -26.2101 -26.2087
   -26.2081 -26.2073 -26.2058 -26.2040 -26.1923 -26.1891 -26.1881 -26.1850
   -15.0534 -15.0460 -15.0424 -15.0423 -15.0411 -15.0410 -15.0347 -15.0337
   -15.0311 -15.0303 -15.0301 -15.0297 -15.0288 -15.0228 -15.0193 -15.0178
   -12.0768 -12.0701 -12.0665 -12.0656 -12.0644 -12.0588 -12.0586 -12.0577
   -12.0554 -12.0552 -12.0547 -12.0541 -12.0538 -12.0473 -12.0468 -12.0463
   -12.0441 -12.0433 -12.0433 -12.0431 -12.0424 -12.0355 -12.0324 -12.0314
    -3.2672  -3.2653  -3.2370  -3.2355  -3.0582  -3.0568  -3.0124  -3.0112
    -1.7246  -1.7207  -1.5517  -1.5480  -1.2921  -1.2905  -1.0783  -1.0769
     0.2914   0.2924   0.5025   0.5034   0.7599   0.7606   0.9092   0.9099
     5.2957   5.3097   5.5041   5.5147   5.7070   5.7206   5.8886   5.8909
     5.9351   5.9372   6.0771   6.0891   6.2896   6.2967   6.3356   6.3422
     6.5263   6.5398   6.6287   6.6367   6.7373   6.7465   6.8234   6.8316
     6.8916   6.9001   7.1472   7.1501   7.2803   7.2829   7.3902   7.3941
     7.4358   7.4389   7.7808   7.7814   7.8695   7.8720   8.0590   8.0655
     8.1410   8.1433   8.3356   8.3380   8.3882   8.3931   8.5264   8.5294
     8.6544   8.6619   8.8259   8.8272   9.0989   9.1020   9.2611   9.2660
     9.4005   9.4107  10.0610  10.0624  10.2656  10.2666  10.5839  10.6082

     occupation numbers 
     1.0000   1.0000   1.0000   1.0000   1.0000   1.0000   1.0000   1.0000
     1.0000   1.0000   1.0000   1.0000   1.0000   1.0000   1.0000   1.0000
     1.0000   1.0000   1.0000   1.0000   1.0000   1.0000   1.0000   1.0000
     1.0000   1.0000   1.0000   1.0000   1.0000   1.0000   1.0000   1.0000
     1.0000   1.0000   1.0000   1.0000   1.0000   1.0000   1.0000   1.0000
     1.0000   1.0000   1.0000   1.0000   1.0000   1.0000   1.0000   1.0000
     1.0000   1.0000   1.0000   1.0000   1.0000   1.0000   1.0000   1.0000
     1.0000   1.0000   1.0000   1.0000   1.0000   1.0000   1.0000   1.0000
     1.0000   1.0000   1.0000   1.0000   1.0000   1.0000   1.0000   1.0000
     1.0000   1.0000   1.0000   1.0000   1.0000   1.0000   1.0000   1.0000
     1.0000   1.0000   1.0000   1.0000   1.0000   1.0000   1.0000   1.0000
     1.0000   1.0000   1.0000   1.0000   1.0000   1.0000   1.0000   1.0000
     1.0000   1.0000   1.0000   1.0000   1.0000   1.0000   1.0000   1.0000
     1.0000   1.0000   1.0000   1.0000   1.0000   1.0000   1.0000   1.0000
     1.0000   1.0000   1.0000   1.0000   1.0000   1.0000   1.0000   1.0000
     1.0000   1.0000   1.0000   1.0000   1.0000   1.0000   1.0000   1.0000
     1.0000   1.0000   1.0000   1.0000   1.0000   1.0000   1.0000   1.0000
     1.0000   1.0000   1.0000   1.0000   1.0000   1.0000   1.0000   1.0000
     1.0000   1.0000   1.0000   1.0000   1.0000   1.0000   1.0000   1.0000
     1.0000   1.0000   1.0000   1.0000   1.0000   1.0000   1.0000   1.0000
     1.0000   1.0000   1.0000   1.0000   1.0000   1.0000   1.0000   1.0000
     1.0000   1.0000   1.0000   1.0000   1.0000   1.0000   1.0000   1.0000
     1.0000   1.0000   1.0000   1.0000   1.0000   1.0000   1.0000   1.0000
     1.0000   1.0000   1.0000   1.0000   1.0000   1.0000   1.0000   1.0000
     1.0000   1.0000   1.0000   1.0000   1.0000   1.0000   1.0000   1.0000
     1.0000   1.0000   1.0000   1.0000   1.0000   1.0000   1.0000   1.0000
     1.0000   1.0000   1.0000   1.0000   1.0000   1.0000   1.0000   1.0000
     1.0000   1.0000  -0.0000  -0.0000  -0.0000  -0.0000  -0.0000  -0.0000

          k = 0.4000 0.2309 0.0212 ( 36150 PWs)   bands (ev):

   -72.0113 -71.9973 -67.7803 -67.7637 -40.9015 -40.9011 -40.9006 -40.8878
   -40.8872 -40.8864 -36.4078 -36.4074 -36.3973 -36.3910 -36.3906 -36.3812
   -28.1158 -28.1144 -28.1141 -28.1106 -28.1090 -28.1087 -28.1076 -28.1026
   -28.0995 -28.0981 -28.0978 -28.0948 -28.0932 -28.0929 -28.0913 -28.0868
   -27.7034 -27.7026 -27.6993 -27.6986 -27.6842 -27.6835 -27.6813 -27.6801
   -27.6793 -27.6788 -27.6773 -27.6748 -27.6625 -27.6596 -27.6583 -27.6556
   -26.6518 -26.6513 -26.6510 -26.6488 -26.6480 -26.6458 -26.6451 -26.6448
[...]
     1.0000   1.0000   1.0000   1.0000   1.0000   1.0000   1.0000   1.0000
     1.0000   1.0000   1.0000   1.0000   1.0000   1.0000   1.0000   1.0000
     1.0000   1.0000   1.0000   1.0000   1.0000   1.0000   1.0000   1.0000
     1.0000   1.0000   1.0000   1.0000   1.0000   1.0000   1.0000   1.0000
     1.0000   1.0000   1.0000   1.0000   1.0000   1.0000   1.0000   1.0000
     1.0000   1.0000   1.0000   1.0000   1.0000   1.0000   1.0000   1.0000
     1.0000   1.0000   1.0000   1.0000   1.0000   1.0000   1.0000   1.0000
     1.0000   1.0000   1.0000   1.0000   1.0000   1.0000   1.0000   1.0000
     1.0000   1.0000   1.0000   1.0000   1.0000   1.0000   1.0000   1.0000
     1.0000   1.0000   1.0000   1.0000   1.0000   1.0000   1.0000   1.0000
     1.0000   1.0000   1.0000   1.0000   1.0000   1.0000   1.0000   1.0000
     1.0000   1.0000   1.0000   1.0000   1.0000   1.0000   1.0000   1.0000
     1.0000   1.0000   1.0000   1.0000   1.0000   1.0000   1.0000   1.0000
     1.0000   1.0000   1.0000   1.0000   1.0000   1.0000   1.0000   1.0000
     1.0000   1.0000   1.0000   1.0000   1.0000   1.0000   1.0000   1.0000
     1.0000   1.0000   1.0000   1.0000   1.0000   1.0000   1.0000   1.0000
     1.0000   1.0000  -0.0000  -0.0000  -0.0000  -0.0000  -0.0000  -0.0000

          k =-0.2000 0.1155-0.0212 ( 36218 PWs)   bands (ev):

   -72.0113 -71.9973 -67.7803 -67.7638 -40.9012 -40.9011 -40.9006 -40.8875
   -40.8872 -40.8864 -36.4074 -36.4073 -36.3973 -36.3906 -36.3905 -36.3813
   -28.1160 -28.1145 -28.1143 -28.1104 -28.1093 -28.1088 -28.1079 -28.1029
   -28.0997 -28.0982 -28.0981 -28.0946 -28.0934 -28.0931 -28.0916 -28.0871
   -27.7034 -27.7027 -27.6994 -27.6986 -27.6843 -27.6836 -27.6816 -27.6801
   -27.6793 -27.6791 -27.6776 -27.6751 -27.6628 -27.6599 -27.6586 -27.6558
   -26.6519 -26.6516 -26.6512 -26.6489 -26.6484 -26.6457 -26.6454 -26.6447
   -26.6435 -26.6413 -26.6395 -26.6356 -26.6353 -26.6350 -26.6345 -26.6327
   -26.6322 -26.6299 -26.6296 -26.6287 -26.6277 -26.6256 -26.6232 -26.6187
   -26.2392 -26.2390 -26.2352 -26.2349 -26.2319 -26.2294 -26.2278 -26.2252
   -26.2201 -26.2198 -26.2159 -26.2156 -26.2130 -26.2113 -26.2101 -26.2087
   -26.2081 -26.2073 -26.2058 -26.2040 -26.1923 -26.1891 -26.1881 -26.1850
   -15.0534 -15.0460 -15.0424 -15.0423 -15.0411 -15.0410 -15.0347 -15.0337
   -15.0311 -15.0303 -15.0300 -15.0297 -15.0288 -15.0228 -15.0193 -15.0178
   -12.0768 -12.0701 -12.0665 -12.0656 -12.0644 -12.0588 -12.0586 -12.0577
   -12.0554 -12.0552 -12.0547 -12.0542 -12.0538 -12.0473 -12.0468 -12.0463
   -12.0441 -12.0433 -12.0433 -12.0431 -12.0424 -12.0355 -12.0323 -12.0314
    -3.2672  -3.2653  -3.2370  -3.2355  -3.0582  -3.0568  -3.0124  -3.0112
    -1.7246  -1.7207  -1.5517  -1.5480  -1.2921  -1.2905  -1.0783  -1.0769
     0.2914   0.2924   0.5025   0.5034   0.7599   0.7606   0.9092   0.9099
     5.2957   5.3097   5.5041   5.5148   5.7070   5.7206   5.8886   5.8908
     5.9351   5.9372   6.0771   6.0891   6.2896   6.2967   6.3356   6.3422
     6.5264   6.5398   6.6288   6.6367   6.7373   6.7465   6.8234   6.8316
     6.8916   6.9001   7.1472   7.1501   7.2803   7.2828   7.3902   7.3942
     7.4358   7.4389   7.7808   7.7814   7.8695   7.8720   8.0590   8.0655
     8.1410   8.1433   8.3356   8.3380   8.3882   8.3931   8.5264   8.5294
     8.6544   8.6619   8.8259   8.8272   9.0990   9.1020   9.2611   9.2660
     9.4005   9.4107  10.0610  10.0623  10.2659  10.2668  10.5847  10.6076

     occupation numbers 
     1.0000   1.0000   1.0000   1.0000   1.0000   1.0000   1.0000   1.0000
     1.0000   1.0000   1.0000   1.0000   1.0000   1.0000   1.0000   1.0000
     1.0000   1.0000   1.0000   1.0000   1.0000   1.0000   1.0000   1.0000
     1.0000   1.0000   1.0000   1.0000   1.0000   1.0000   1.0000   1.0000
     1.0000   1.0000   1.0000   1.0000   1.0000   1.0000   1.0000   1.0000
     1.0000   1.0000   1.0000   1.0000   1.0000   1.0000   1.0000   1.0000
     1.0000   1.0000   1.0000   1.0000   1.0000   1.0000   1.0000   1.0000
     1.0000   1.0000   1.0000   1.0000   1.0000   1.0000   1.0000   1.0000
     1.0000   1.0000   1.0000   1.0000   1.0000   1.0000   1.0000   1.0000
     1.0000   1.0000   1.0000   1.0000   1.0000   1.0000   1.0000   1.0000
     1.0000   1.0000   1.0000   1.0000   1.0000   1.0000   1.0000   1.0000
     1.0000   1.0000   1.0000   1.0000   1.0000   1.0000   1.0000   1.0000
     1.0000   1.0000   1.0000   1.0000   1.0000   1.0000   1.0000   1.0000
     1.0000   1.0000   1.0000   1.0000   1.0000   1.0000   1.0000   1.0000
     1.0000   1.0000   1.0000   1.0000   1.0000   1.0000   1.0000   1.0000
     1.0000   1.0000   1.0000   1.0000   1.0000   1.0000   1.0000   1.0000
     1.0000   1.0000   1.0000   1.0000   1.0000   1.0000   1.0000   1.0000
     1.0000   1.0000   1.0000   1.0000   1.0000   1.0000   1.0000   1.0000
     1.0000   1.0000   1.0000   1.0000   1.0000   1.0000   1.0000   1.0000
     1.0000   1.0000   1.0000   1.0000   1.0000   1.0000   1.0000   1.0000
     1.0000   1.0000   1.0000   1.0000   1.0000   1.0000   1.0000   1.0000
     1.0000   1.0000   1.0000   1.0000   1.0000   1.0000   1.0000   1.0000
     1.0000   1.0000   1.0000   1.0000   1.0000   1.0000   1.0000   1.0000
     1.0000   1.0000   1.0000   1.0000   1.0000   1.0000   1.0000   1.0000
     1.0000   1.0000   1.0000   1.0000   1.0000   1.0000   1.0000   1.0000
     1.0000   1.0000   1.0000   1.0000   1.0000   1.0000   1.0000   1.0000
     1.0000   1.0000   1.0000   1.0000   1.0000   1.0000   1.0000   1.0000
     1.0000   1.0000  -0.0000  -0.0000  -0.0000  -0.0000  -0.0000  -0.0000

          k =-0.2000 0.3464-0.0318 ( 36158 PWs)   bands (ev):

   -72.0113 -71.9973 -67.7803 -67.7638 -40.9013 -40.9011 -40.9006 -40.8877
   -40.8873 -40.8864 -36.4077 -36.4074 -36.3973 -36.3909 -36.3906 -36.3812
   -28.1158 -28.1144 -28.1142 -28.1105 -28.1090 -28.1087 -28.1077 -28.1026
   -28.0996 -28.0981 -28.0978 -28.0948 -28.0932 -28.0931 -28.0913 -28.0868
   -27.7034 -27.7027 -27.6994 -27.6986 -27.6842 -27.6835 -27.6814 -27.6801
   -27.6793 -27.6789 -27.6774 -27.6748 -27.6625 -27.6597 -27.6584 -27.6556
   -26.6518 -26.6513 -26.6511 -26.6488 -26.6480 -26.6457 -26.6452 -26.6445
   -26.6432 -26.6414 -26.6393 -26.6356 -26.6351 -26.6346 -26.6342 -26.6326
   -26.6319 -26.6298 -26.6295 -26.6290 -26.6272 -26.6256 -26.6228 -26.6183
   -26.2391 -26.2388 -26.2351 -26.2348 -26.2319 -26.2293 -26.2278 -26.2253
   -26.2199 -26.2197 -26.2158 -26.2156 -26.2130 -26.2109 -26.2100 -26.2088
   -26.2077 -26.2069 -26.2059 -26.2037 -26.1919 -26.1887 -26.1878 -26.1846
   -15.0519 -15.0450 -15.0429 -15.0412 -15.0407 -15.0400 -15.0336 -15.0322
   -15.0317 -15.0301 -15.0297 -15.0294 -15.0291 -15.0214 -15.0194 -15.0181
   -12.0769 -12.0720 -12.0656 -12.0640 -12.0634 -12.0607 -12.0603 -12.0589
   -12.0539 -12.0533 -12.0527 -12.0525 -12.0522 -12.0490 -12.0481 -12.0478
   -12.0431 -12.0420 -12.0409 -12.0407 -12.0400 -12.0369 -12.0300 -12.0290
    -2.6147  -2.6125  -2.5906  -2.5890  -2.4292  -2.4276  -2.3958  -2.3944
    -1.3464  -1.3421  -1.2408  -1.2369  -1.0517  -1.0489  -0.9347  -0.9318
    -0.1236  -0.1215  -0.0597  -0.0579   0.0703   0.0715   0.1086   0.1106
     4.9788   4.9875   5.0342   5.0407   5.1064   5.1123   5.2465   5.2560
     5.4161   5.4177   5.6015   5.6041   5.6830   5.6863   5.8087   5.8128
     6.0158   6.0231   6.0892   6.0959   6.2800   6.2858   6.4143   6.4161
     6.5057   6.5112   6.6364   6.6453   6.6960   6.7005   6.7868   6.7938
     6.8830   6.8886   7.1794   7.1818   7.3338   7.3369   7.4692   7.4742
     7.5221   7.5250   7.8899   7.8922   7.9849   7.9878   8.1982   8.2000
     8.3474   8.3521   8.4796   8.4868   8.7044   8.7072   9.0862   9.0966
     9.3737   9.3839  10.3127  10.3156  10.5190  10.5214  10.6903  10.6960

     occupation numbers 
     1.0000   1.0000   1.0000   1.0000   1.0000   1.0000   1.0000   1.0000
     1.0000   1.0000   1.0000   1.0000   1.0000   1.0000   1.0000   1.0000
     1.0000   1.0000   1.0000   1.0000   1.0000   1.0000   1.0000   1.0000
     1.0000   1.0000   1.0000   1.0000   1.0000   1.0000   1.0000   1.0000
     1.0000   1.0000   1.0000   1.0000   1.0000   1.0000   1.0000   1.0000
     1.0000   1.0000   1.0000   1.0000   1.0000   1.0000   1.0000   1.0000
     1.0000   1.0000   1.0000   1.0000   1.0000   1.0000   1.0000   1.0000
     1.0000   1.0000   1.0000   1.0000   1.0000   1.0000   1.0000   1.0000
     1.0000   1.0000   1.0000   1.0000   1.0000   1.0000   1.0000   1.0000
     1.0000   1.0000   1.0000   1.0000   1.0000   1.0000   1.0000   1.0000
     1.0000   1.0000   1.0000   1.0000   1.0000   1.0000   1.0000   1.0000
     1.0000   1.0000   1.0000   1.0000   1.0000   1.0000   1.0000   1.0000
     1.0000   1.0000   1.0000   1.0000   1.0000   1.0000   1.0000   1.0000
     1.0000   1.0000   1.0000   1.0000   1.0000   1.0000   1.0000   1.0000
     1.0000   1.0000   1.0000   1.0000   1.0000   1.0000   1.0000   1.0000
     1.0000   1.0000   1.0000   1.0000   1.0000   1.0000   1.0000   1.0000
     1.0000   1.0000   1.0000   1.0000   1.0000   1.0000   1.0000   1.0000
     1.0000   1.0000   1.0000   1.0000   1.0000   1.0000   1.0000   1.0000
     1.0000   1.0000   1.0000   1.0000   1.0000   1.0000   1.0000   1.0000
     1.0000   1.0000   1.0000   1.0000   1.0000   1.0000   1.0000   1.0000
     1.0000   1.0000   1.0000   1.0000   1.0000   1.0000   1.0000   1.0000
     1.0000   1.0000   1.0000   1.0000   1.0000   1.0000   1.0000   1.0000
     1.0000   1.0000   1.0000   1.0000   1.0000   1.0000   1.0000   1.0000
     1.0000   1.0000   1.0000   1.0000   1.0000   1.0000   1.0000   1.0000
     1.0000   1.0000   1.0000   1.0000   1.0000   1.0000   1.0000   1.0000
     1.0000   1.0000   1.0000   1.0000   1.0000   1.0000   1.0000   1.0000
     1.0000   1.0000   1.0000   1.0000   1.0000   1.0000   1.0000   1.0000
     1.0000   1.0000  -0.0000  -0.0000  -0.0000  -0.0000  -0.0000  -0.0000

          k =-0.2000-0.5774 0.0106 ( 36145 PWs)   bands (ev):

   -72.0113 -71.9973 -67.7803 -67.7637 -40.9015 -40.9011 -40.9006 -40.8878
   -40.8873 -40.8864 -36.4078 -36.4075 -36.3973 -36.3910 -36.3907 -36.3812
   -28.1158 -28.1143 -28.1141 -28.1105 -28.1089 -28.1087 -28.1075 -28.1025
   -28.0995 -28.0979 -28.0977 -28.0949 -28.0932 -28.0929 -28.0912 -28.0867
   -27.7033 -27.7026 -27.6993 -27.6985 -27.6842 -27.6835 -27.6812 -27.6801
   -27.6793 -27.6788 -27.6773 -27.6747 -27.6624 -27.6596 -27.6582 -27.6555
   -26.6518 -26.6513 -26.6508 -26.6487 -26.6478 -26.6458 -26.6451 -26.6444
   -26.6430 -26.6415 -26.6391 -26.6356 -26.6350 -26.6345 -26.6340 -26.6325
   -26.6317 -26.6300 -26.6296 -26.6289 -26.6270 -26.6256 -26.6226 -26.6181
   -26.2390 -26.2387 -26.2350 -26.2348 -26.2319 -26.2293 -26.2279 -26.2253
   -26.2198 -26.2196 -26.2157 -26.2155 -26.2130 -26.2107 -26.2100 -26.2088
   -26.2075 -26.2067 -26.2060 -26.2035 -26.1917 -26.1885 -26.1875 -26.1844
   -15.0509 -15.0443 -15.0433 -15.0411 -15.0398 -15.0395 -15.0330 -15.0320
   -15.0313 -15.0299 -15.0297 -15.0295 -15.0289 -15.0205 -15.0191 -15.0186
   -12.0766 -12.0731 -12.0653 -12.0640 -12.0640 -12.0618 -12.0606 -12.0576
   -12.0548 -12.0531 -12.0527 -12.0518 -12.0505 -12.0493 -12.0485 -12.0468
   -12.0440 -12.0405 -12.0395 -12.0392 -12.0383 -12.0377 -12.0287 -12.0274
    -1.7092  -1.7023  -1.6860  -1.6810  -1.6537  -1.6475  -1.6452  -1.6400
    -1.2210  -1.2137  -1.1956  -1.1923  -1.1155  -1.1114  -1.0882  -1.0804
    -0.7087  -0.7041  -0.6992  -0.6949  -0.6285  -0.6251  -0.6182  -0.6135
     4.6028   4.6076   4.6352   4.6399   4.8514   4.8561   5.0044   5.0114
     5.1827   5.1877   5.2619   5.2667   5.4310   5.4367   5.4677   5.4717
     5.6966   5.7067   5.8598   5.8692   6.0067   6.0137   6.1373   6.1420
     6.3456   6.3498   6.4195   6.4260   6.6065   6.6090   6.6754   6.6789
     6.7342   6.7458   6.8009   6.8047   7.0354   7.0397   7.1710   7.1739
     7.2923   7.2933   7.4664   7.4690   7.6498   7.6522   7.9495   7.9523
     8.0964   8.0978   8.2070   8.2127   8.4650   8.4723   8.9473   8.9563
     9.2177   9.2272  10.3245  10.3254  10.5233  10.5244  10.7279  10.7412

     occupation numbers 
     1.0000   1.0000   1.0000   1.0000   1.0000   1.0000   1.0000   1.0000
     1.0000   1.0000   1.0000   1.0000   1.0000   1.0000   1.0000   1.0000
     1.0000   1.0000   1.0000   1.0000   1.0000   1.0000   1.0000   1.0000
     1.0000   1.0000   1.0000   1.0000   1.0000   1.0000   1.0000   1.0000
     1.0000   1.0000   1.0000   1.0000   1.0000   1.0000   1.0000   1.0000
     1.0000   1.0000   1.0000   1.0000   1.0000   1.0000   1.0000   1.0000
     1.0000   1.0000   1.0000   1.0000   1.0000   1.0000   1.0000   1.0000
     1.0000   1.0000   1.0000   1.0000   1.0000   1.0000   1.0000   1.0000
     1.0000   1.0000   1.0000   1.0000   1.0000   1.0000   1.0000   1.0000
     1.0000   1.0000   1.0000   1.0000   1.0000   1.0000   1.0000   1.0000
     1.0000   1.0000   1.0000   1.0000   1.0000   1.0000   1.0000   1.0000
     1.0000   1.0000   1.0000   1.0000   1.0000   1.0000   1.0000   1.0000
     1.0000   1.0000   1.0000   1.0000   1.0000   1.0000   1.0000   1.0000
     1.0000   1.0000   1.0000   1.0000   1.0000   1.0000   1.0000   1.0000
     1.0000   1.0000   1.0000   1.0000   1.0000   1.0000   1.0000   1.0000
     1.0000   1.0000   1.0000   1.0000   1.0000   1.0000   1.0000   1.0000
     1.0000   1.0000   1.0000   1.0000   1.0000   1.0000   1.0000   1.0000
     1.0000   1.0000   1.0000   1.0000   1.0000   1.0000   1.0000   1.0000
     1.0000   1.0000   1.0000   1.0000   1.0000   1.0000   1.0000   1.0000
     1.0000   1.0000   1.0000   1.0000   1.0000   1.0000   1.0000   1.0000
     1.0000   1.0000   1.0000   1.0000   1.0000   1.0000   1.0000   1.0000
     1.0000   1.0000   1.0000   1.0000   1.0000   1.0000   1.0000   1.0000
     1.0000   1.0000   1.0000   1.0000   1.0000   1.0000   1.0000   1.0000
     1.0000   1.0000   1.0000   1.0000   1.0000   1.0000   1.0000   1.0000
     1.0000   1.0000   1.0000   1.0000   1.0000   1.0000   1.0000   1.0000
     1.0000   1.0000   1.0000   1.0000   1.0000   1.0000   1.0000   1.0000
     1.0000   1.0000   1.0000   1.0000   1.0000   1.0000   1.0000   1.0000
     1.0000   1.0000  -0.0000  -0.0000  -0.0000  -0.0000  -0.0000  -0.0000

          k =-0.2000-0.3464 0.0000 ( 36176 PWs)   bands (ev):

   -72.0113 -71.9973 -67.7803 -67.7638 -40.9015 -40.9011 -40.9006 -40.8878
   -40.8872 -40.8864 -36.4077 -36.4074 -36.3973 -36.3909 -36.3906 -36.3812
   -28.1158 -28.1144 -28.1142 -28.1105 -28.1090 -28.1087 -28.1077 -28.1026
   -28.0996 -28.0981 -28.0978 -28.0948 -28.0931 -28.0931 -28.0913 -28.0868
   -27.7034 -27.7027 -27.6994 -27.6986 -27.6843 -27.6835 -27.6814 -27.6801
   -27.6793 -27.6789 -27.6774 -27.6748 -27.6625 -27.6597 -27.6584 -27.6556
   -26.6518 -26.6512 -26.6512 -26.6488 -26.6480 -26.6457 -26.6453 -26.6445
   -26.6432 -26.6414 -26.6393 -26.6355 -26.6351 -26.6347 -26.6342 -26.6326
   -26.6319 -26.6298 -26.6296 -26.6290 -26.6273 -26.6256 -26.6228 -26.6183
   -26.2391 -26.2388 -26.2350 -26.2348 -26.2319 -26.2293 -26.2278 -26.2253
   -26.2199 -26.2197 -26.2158 -26.2156 -26.2130 -26.2109 -26.2100 -26.2088
   -26.2077 -26.2069 -26.2059 -26.2037 -26.1919 -26.1887 -26.1878 -26.1846
   -15.0519 -15.0450 -15.0428 -15.0412 -15.0408 -15.0401 -15.0337 -15.0322
   -15.0315 -15.0301 -15.0298 -15.0294 -15.0291 -15.0213 -15.0194 -15.0181
   -12.0770 -12.0720 -12.0657 -12.0640 -12.0634 -12.0607 -12.0603 -12.0591
   -12.0539 -12.0534 -12.0527 -12.0525 -12.0521 -12.0490 -12.0483 -12.0477
   -12.0430 -12.0421 -12.0408 -12.0407 -12.0399 -12.0369 -12.0300 -12.0289
    -2.6161  -2.6141  -2.5884  -2.5867  -2.4331  -2.4314  -2.3927  -2.3913
    -1.3543  -1.3506  -1.2207  -1.2172  -1.0731  -1.0705  -0.9244  -0.9219
    -0.1298  -0.1278  -0.0509  -0.0487   0.0639   0.0656   0.1116   0.1134
     4.9768   4.9847   5.0389   5.0448   5.1053   5.1104   5.2526   5.2620
     5.3960   5.3972   5.6165   5.6201   5.6835   5.6852   5.8081   5.8122
     6.0450   6.0515   6.0730   6.0784   6.2613   6.2680   6.4138   6.4163
     6.5043   6.5107   6.6367   6.6461   6.6930   6.6990   6.8047   6.8084
     6.8627   6.8676   7.1661   7.1683   7.3504   7.3536   7.5191   7.5249
     7.5456   7.5485   7.8114   7.8124   7.9873   7.9898   8.1533   8.1551
     8.3729   8.3772   8.5151   8.5233   8.7042   8.7081   9.0934   9.1038
     9.3673   9.3776  10.3081  10.3109  10.5108  10.5140  10.6758  10.6804

     occupation numbers 
     1.0000   1.0000   1.0000   1.0000   1.0000   1.0000   1.0000   1.0000
     1.0000   1.0000   1.0000   1.0000   1.0000   1.0000   1.0000   1.0000
     1.0000   1.0000   1.0000   1.0000   1.0000   1.0000   1.0000   1.0000
     1.0000   1.0000   1.0000   1.0000   1.0000   1.0000   1.0000   1.0000
     1.0000   1.0000   1.0000   1.0000   1.0000   1.0000   1.0000   1.0000
     1.0000   1.0000   1.0000   1.0000   1.0000   1.0000   1.0000   1.0000
     1.0000   1.0000   1.0000   1.0000   1.0000   1.0000   1.0000   1.0000
     1.0000   1.0000   1.0000   1.0000   1.0000   1.0000   1.0000   1.0000
     1.0000   1.0000   1.0000   1.0000   1.0000   1.0000   1.0000   1.0000
     1.0000   1.0000   1.0000   1.0000   1.0000   1.0000   1.0000   1.0000
     1.0000   1.0000   1.0000   1.0000   1.0000   1.0000   1.0000   1.0000
     1.0000   1.0000   1.0000   1.0000   1.0000   1.0000   1.0000   1.0000
     1.0000   1.0000   1.0000   1.0000   1.0000   1.0000   1.0000   1.0000
     1.0000   1.0000   1.0000   1.0000   1.0000   1.0000   1.0000   1.0000
     1.0000   1.0000   1.0000   1.0000   1.0000   1.0000   1.0000   1.0000
     1.0000   1.0000   1.0000   1.0000   1.0000   1.0000   1.0000   1.0000
     1.0000   1.0000   1.0000   1.0000   1.0000   1.0000   1.0000   1.0000
     1.0000   1.0000   1.0000   1.0000   1.0000   1.0000   1.0000   1.0000
     1.0000   1.0000   1.0000   1.0000   1.0000   1.0000   1.0000   1.0000
     1.0000   1.0000   1.0000   1.0000   1.0000   1.0000   1.0000   1.0000
     1.0000   1.0000   1.0000   1.0000   1.0000   1.0000   1.0000   1.0000
     1.0000   1.0000   1.0000   1.0000   1.0000   1.0000   1.0000   1.0000
     1.0000   1.0000   1.0000   1.0000   1.0000   1.0000   1.0000   1.0000
     1.0000   1.0000   1.0000   1.0000   1.0000   1.0000   1.0000   1.0000
     1.0000   1.0000   1.0000   1.0000   1.0000   1.0000   1.0000   1.0000
     1.0000   1.0000   1.0000   1.0000   1.0000   1.0000   1.0000   1.0000
     1.0000   1.0000   1.0000   1.0000   1.0000   1.0000   1.0000   1.0000
     1.0000   1.0000  -0.0000  -0.0000  -0.0000  -0.0000  -0.0000  -0.0000

     the Fermi energy is     9.6978 ev

!    total energy              =   -2767.97881635 Ry
     estimated scf accuracy    <       0.00041136 Ry
     smearing contrib. (-TS)   =       0.00000403 Ry
     internal energy E=F+TS    =   -2767.97882037 Ry

     total magnetization       =     0.00    -0.00    -0.01 Bohr mag/cell
     absolute magnetization    =     9.90 Bohr mag/cell

     convergence has been achieved in  14 iterations

     Using ACE for calculation of exact exchange
 
     Parallelization info
     --------------------
     sticks:   dense  smooth     PW     G-vecs:    dense   smooth      PW
     Min          23      23      6                 4513     4513     673
     Max          24      24      7                 4545     4545     704
     Sum        1483    1483    421               289535   289535   44203
 
     Exchange parallelized over bands (  16 band groups)

     EXX grid:   289535 G-vectors     FFT dimensions: (  48,  48, 300)

     EXX: now go back to refine exchange calculation

     total cpu time spent up to now is     1013.0 secs

     Self-consistent Calculation

     iteration #  1     ecut=    80.00 Ry     beta= 0.25
     CG style diagonalization
     c_bands:  5 eigenvalues not converged
     c_bands:  4 eigenvalues not converged

 %%%%%%%%%%%%%%%%%%%%%%%%%%%%%%%%%%%%%%%%%%%%%%%%%%%%%%%%%%%%%%%%%%%%%%%%%%%%%%
     Error in routine  cdiaghg (136):
      problems computing cholesky
 %%%%%%%%%%%%%%%%%%%%%%%%%%%%%%%%%%%%%%%%%%%%%%%%%%%%%%%%%%%%%%%%%%%%%%%%%%%%%%

     stopping ...
