
     Program PWSCF v.6.4.1 starts on 23Oct2021 at  2:17:58 

     This program is part of the open-source Quantum ESPRESSO suite
     for quantum simulation of materials; please cite
         "P. Giannozzi et al., J. Phys.:Condens. Matter 21 395502 (2009);
         "P. Giannozzi et al., J. Phys.:Condens. Matter 29 465901 (2017);
          URL http://www.quantum-espresso.org", 
     in publications or presentations arising from this work. More details at
     http://www.quantum-espresso.org/quote

     Parallel version (MPI & OpenMP), running on     288 processor cores
     Number of MPI processes:                96
     Threads/MPI process:                     3

     MPI processes distributed on     8 nodes
     R & G space division:  proc/nbgrp/npool/nimage =      96
     Reading input from scf.in

     Current dimensions of program PWSCF are:
     Max number of different atomic species (ntypx) = 10
     Max number of k-points (npk) =  40000
     Max angular momentum in pseudopotentials (lmaxx) =  3

     IMPORTANT: XC functional enforced from input :
     Exchange-correlation      = PBE ( 1  4  3  4 0 0)
     Any further DFT definition will be discarded
     Please, verify this is what you really want


     Fixed quantization axis for GGA:     0.000000    0.000000    1.000000

     Subspace diagonalization in iterative solution of the eigenvalue problem:
     one sub-group per band group will be used
     scalapack distributed-memory algorithm (size of sub-group:  6*  6 procs)

     Message from routine setup:
     DEPRECATED: symmetry with ibrav=0, use correct ibrav instead
 
     Parallelization info
     --------------------
     sticks:   dense  smooth     PW     G-vecs:    dense   smooth      PW
     Min         115     115     30                61895    61895    8230
     Max         116     116     31                61958    61958    8255
     Sum       11077   11077   2905              5943287  5943287  790899
 


     bravais-lattice index     =            0
     lattice parameter (alat)  =       8.1895  a.u.
     unit-cell volume          =    2993.5487 (a.u.)^3
     number of atoms/cell      =            7
     number of atomic types    =            3
     number of electrons       =        85.00
     number of Kohn-Sham states=          104
     kinetic-energy cutoff     =     600.0000  Ry
     charge density cutoff     =    2400.0000  Ry
     convergence threshold     =      1.0E-10
     mixing beta               =       0.4000
     number of iterations used =            8  plain     mixing
     Exchange-correlation      = PBE ( 1  4  3  4 0 0)
     Noncollinear calculation with spin-orbit


     celldm(1)=   8.189506  celldm(2)=   0.000000  celldm(3)=   0.000000
     celldm(4)=   0.000000  celldm(5)=   0.000000  celldm(6)=   0.000000

     crystal axes: (cart. coord. in units of alat)
               a(1) = (   0.866025  -0.500000   0.000000 )  
               a(2) = (   0.000000   1.000000   0.000000 )  
               a(3) = (   0.000000   0.000000   6.293360 )  

     reciprocal axes: (cart. coord. in units 2 pi/alat)
               b(1) = (  1.154701  0.000000  0.000000 )  
               b(2) = (  0.577350  1.000000  0.000000 )  
               b(3) = (  0.000000  0.000000  0.158898 )  


     PseudoPot. # 1 for Bi read from file:
     ./Bi.upf
     MD5 check sum: 5fcce651b66763ab7701696c489caba4
     Pseudo is Norm-conserving, Zval = 23.0
     Generated by new atomic code, or converted to UPF format
     Using radial grid of 1190 points,  4 beta functions with: 
                l(1) =   1
                l(2) =   1
                l(3) =   2
                l(4) =   2

     PseudoPot. # 2 for Mn read from file:
     ./Mn.ccECP.upf
     MD5 check sum: b3d28dd9db8b6e441bb4f705408f00ed
     Pseudo is Norm-conserving, Zval = 15.0
     Generated by new atomic code, or converted to UPF format
     Using radial grid of 1159 points,  2 beta functions with: 
                l(1) =   1
                l(2) =   2

     PseudoPot. # 3 for Te read from file:
     ./Te.upf
     MD5 check sum: 13747896bef40d8043e0581260d3ff7d
     Pseudo is Norm-conserving, Zval =  6.0
     Generated by new atomic code, or converted to UPF format
     Using radial grid of 1178 points,  2 beta functions with: 
                l(1) =   0
                l(2) =   1

     atomic species   valence    mass     pseudopotential
        Bi            23.00   208.98000     Bi( 1.00)
        Mn            15.00    54.93800     Mn( 1.00)
        Te             6.00   127.60000     Te( 1.00)


     Full LDA+U calculation (l_max = 2) with parameters (eV):
     U(  2) =   4.0000   J(  2) =   0.0000   B(  2) =   0.0000
     LDA+U on averaged j=l+1/2,l-1/2 radial WFs



     12 Sym. Ops., with inversion, found


                                    s                        frac. trans.

      isym =  1     identity                                     

 Time Reversal            0
 cryst.   s( 1) = (     1          0          0      )
                  (     0          1          0      )
                  (     0          0          1      )

 cart.    s( 1) = (  1.0000000  0.0000000  0.0000000 )
                  (  0.0000000  1.0000000  0.0000000 )
                  (  0.0000000  0.0000000  1.0000000 )


      isym =  2     180 deg rotation - cart. axis [0,1,0]        

 Time Reversal            1
 cryst.   s( 2) = (    -1         -1          0      )
                  (     0          1          0      )
                  (     0          0         -1      )

 cart.    s( 2) = ( -1.0000000  0.0000000  0.0000000 )
                  (  0.0000000  1.0000000  0.0000000 )
                  (  0.0000000  0.0000000 -1.0000000 )


      isym =  3     120 deg rotation - cryst. axis [0,0,1]       

 Time Reversal            0
 cryst.   s( 3) = (     0          1          0      )
                  (    -1         -1          0      )
                  (     0          0          1      )

 cart.    s( 3) = ( -0.5000000 -0.8660254  0.0000000 )
                  (  0.8660254 -0.5000000  0.0000000 )
                  (  0.0000000  0.0000000  1.0000000 )


      isym =  4     120 deg rotation - cryst. axis [0,0,-1]      

 Time Reversal            0
 cryst.   s( 4) = (    -1         -1          0      )
                  (     1          0          0      )
                  (     0          0          1      )

 cart.    s( 4) = ( -0.5000000  0.8660254  0.0000000 )
                  ( -0.8660254 -0.5000000  0.0000000 )
                  (  0.0000000  0.0000000  1.0000000 )


      isym =  5     180 deg rotation - cryst. axis [1,-1,0]      

 Time Reversal            1
 cryst.   s( 5) = (     1          0          0      )
                  (    -1         -1          0      )
                  (     0          0         -1      )

 cart.    s( 5) = (  0.5000000 -0.8660254  0.0000000 )
                  ( -0.8660254 -0.5000000  0.0000000 )
                  (  0.0000000  0.0000000 -1.0000000 )


      isym =  6     180 deg rotation - cryst. axis [2,1,0]       

 Time Reversal            1
 cryst.   s( 6) = (     0          1          0      )
                  (     1          0          0      )
                  (     0          0         -1      )

 cart.    s( 6) = (  0.5000000  0.8660254  0.0000000 )
                  (  0.8660254 -0.5000000  0.0000000 )
                  (  0.0000000  0.0000000 -1.0000000 )


      isym =  7     inversion                                    

 Time Reversal            0
 cryst.   s( 7) = (    -1          0          0      )
                  (     0         -1          0      )
                  (     0          0         -1      )

 cart.    s( 7) = ( -1.0000000  0.0000000  0.0000000 )
                  (  0.0000000 -1.0000000  0.0000000 )
                  (  0.0000000  0.0000000 -1.0000000 )


      isym =  8     inv. 180 deg rotation - cart. axis [0,1,0]   

 Time Reversal            1
 cryst.   s( 8) = (     1          1          0      )
                  (     0         -1          0      )
                  (     0          0          1      )

 cart.    s( 8) = (  1.0000000  0.0000000  0.0000000 )
                  (  0.0000000 -1.0000000  0.0000000 )
                  (  0.0000000  0.0000000  1.0000000 )


      isym =  9     inv. 120 deg rotation - cryst. axis [0,0,1]  

 Time Reversal            0
 cryst.   s( 9) = (     0         -1          0      )
                  (     1          1          0      )
                  (     0          0         -1      )

 cart.    s( 9) = (  0.5000000  0.8660254  0.0000000 )
                  ( -0.8660254  0.5000000  0.0000000 )
                  (  0.0000000  0.0000000 -1.0000000 )


      isym = 10     inv. 120 deg rotation - cryst. axis [0,0,-1] 

 Time Reversal            0
 cryst.   s(10) = (     1          1          0      )
                  (    -1          0          0      )
                  (     0          0         -1      )

 cart.    s(10) = (  0.5000000 -0.8660254  0.0000000 )
                  (  0.8660254  0.5000000  0.0000000 )
                  (  0.0000000  0.0000000 -1.0000000 )


      isym = 11     inv. 180 deg rotation - cryst. axis [1,-1,0] 

 Time Reversal            1
 cryst.   s(11) = (    -1          0          0      )
                  (     1          1          0      )
                  (     0          0          1      )

 cart.    s(11) = ( -0.5000000  0.8660254  0.0000000 )
                  (  0.8660254  0.5000000  0.0000000 )
                  (  0.0000000  0.0000000  1.0000000 )


      isym = 12     inv. 180 deg rotation - cryst. axis [2,1,0]  

 Time Reversal            1
 cryst.   s(12) = (     0         -1          0      )
                  (    -1          0          0      )
                  (     0          0          1      )

 cart.    s(12) = ( -0.5000000 -0.8660254  0.0000000 )
                  ( -0.8660254  0.5000000  0.0000000 )
                  (  0.0000000  0.0000000  1.0000000 )


   Cartesian axes

     site n.     atom                  positions (alat units)
         1           Mn  tau(   1) = (   0.0000000   0.0000000   3.1466799  )
         2           Bi  tau(   2) = (   0.2886751   0.5000000   4.0108841  )
         3           Bi  tau(   3) = (   0.5773503   0.0000000   2.2824757  )
         4           Te  tau(   4) = (   0.0000000   0.0000000   4.4053204  )
         5           Te  tau(   5) = (   0.0000000   0.0000000   1.8880394  )
         6           Te  tau(   6) = (   0.2886751   0.5000000   2.7787701  )
         7           Te  tau(   7) = (   0.5773503   0.0000000   3.5145897  )

   Crystallographic axes

     site n.     atom                  positions (cryst. coord.)
         1           Mn  tau(   1) = (  0.0000000  0.0000000  0.5000000  )
         2           Bi  tau(   2) = (  0.3333333  0.6666667  0.6373200  )
         3           Bi  tau(   3) = (  0.6666667  0.3333333  0.3626800  )
         4           Te  tau(   4) = (  0.0000000  0.0000000  0.6999950  )
         5           Te  tau(   5) = (  0.0000000  0.0000000  0.3000050  )
         6           Te  tau(   6) = (  0.3333333  0.6666667  0.4415400  )
         7           Te  tau(   7) = (  0.6666667  0.3333333  0.5584600  )

     number of k points=    12  Fermi-Dirac smearing, width (Ry)=  0.0010
                       cart. coord. in units 2pi/alat
        k(    1) = (   0.0000000   0.0000000   0.0000000), wk =   0.0123457
        k(    2) = (   0.0641500   0.1111111   0.0000000), wk =   0.0740741
        k(    3) = (   0.1283001   0.2222222   0.0000000), wk =   0.0740741
        k(    4) = (   0.1924501   0.3333333   0.0000000), wk =   0.0740741
        k(    5) = (   0.2566001   0.4444444   0.0000000), wk =   0.0740741
        k(    6) = (   0.1924501   0.1111111   0.0000000), wk =   0.0740741
        k(    7) = (   0.2566001   0.2222222   0.0000000), wk =   0.1481481
        k(    8) = (   0.3207501   0.3333333   0.0000000), wk =   0.1481481
        k(    9) = (   0.3849002   0.4444444   0.0000000), wk =   0.0740741
        k(   10) = (   0.3849002   0.2222222   0.0000000), wk =   0.0740741
        k(   11) = (   0.4490502   0.3333333   0.0000000), wk =   0.1481481
        k(   12) = (   0.5773503   0.3333333   0.0000000), wk =   0.0246914

                       cryst. coord.
        k(    1) = (   0.0000000   0.0000000   0.0000000), wk =   0.0123457
        k(    2) = (   0.0000000   0.1111111   0.0000000), wk =   0.0740741
        k(    3) = (   0.0000000   0.2222222   0.0000000), wk =   0.0740741
        k(    4) = (   0.0000000   0.3333333   0.0000000), wk =   0.0740741
        k(    5) = (   0.0000000   0.4444444   0.0000000), wk =   0.0740741
        k(    6) = (   0.1111111   0.1111111   0.0000000), wk =   0.0740741
        k(    7) = (   0.1111111   0.2222222   0.0000000), wk =   0.1481481
        k(    8) = (   0.1111111   0.3333333   0.0000000), wk =   0.1481481
        k(    9) = (   0.1111111   0.4444444   0.0000000), wk =   0.0740741
        k(   10) = (   0.2222222   0.2222222   0.0000000), wk =   0.0740741
        k(   11) = (   0.2222222   0.3333333   0.0000000), wk =   0.1481481
        k(   12) = (   0.3333333   0.3333333   0.0000000), wk =   0.0246914

     Dense  grid:  5943287 G-vectors     FFT dimensions: ( 128, 128, 810)

     Dynamical RAM for                 wfc:      24.56 MB

     Dynamical RAM for     wfc (w. buffer):     319.31 MB

     Dynamical RAM for             U proj.:       2.36 MB

     Dynamical RAM for  U proj. (w. buff.):      30.70 MB

     Dynamical RAM for           str. fact:       2.83 MB

     Dynamical RAM for           local pot:       0.00 MB

     Dynamical RAM for          nlocal pot:       6.61 MB

     Dynamical RAM for                qrad:       7.31 MB

     Dynamical RAM for          rho,v,vnew:      24.84 MB

     Dynamical RAM for               rhoin:       8.28 MB

     Dynamical RAM for            rho*nmix:      60.48 MB

     Dynamical RAM for           G-vectors:       4.02 MB

     Dynamical RAM for          h,s,v(r/c):       0.22 MB

     Dynamical RAM for          <psi|beta>:       0.18 MB

     Dynamical RAM for                 psi:      98.25 MB

     Dynamical RAM for                hpsi:      98.25 MB

     Dynamical RAM for      wfcinit/wfcrot:      37.09 MB

     Estimated static dynamical RAM per process >     477.17 MB

     Estimated max dynamical RAM per process >     674.06 MB

     Estimated total dynamical RAM >      63.19 GB
     Generating pointlists ...
     new r_m :   0.2884 (alat units)  2.3621 (a.u.) for type    1
     new r_m :   0.2824 (alat units)  2.3127 (a.u.) for type    2
     new r_m :   0.2824 (alat units)  2.3127 (a.u.) for type    3

     Initial potential from superposition of free atoms

     starting charge   68.99997, renormalised to   85.00000

     negative rho (up, down):  3.008E-03 3.568E-03
 --- in v_hubbard ---
Hub. E (dc, noflip, flip, total)    2.9399   2.9399   0.0000   0.0000
 -------
     Number of +U iterations with fixed ns =  0
     Starting occupations:
 --- enter write_ns ---
 LDA+U parameters:
U(  2) =   4.0000   J(  2) =   0.0000   B(  2) =   0.0000
atom    1   Tr[ns(na)] (up, down, total) =   5.00000  0.00000  5.00000
 eigenvalues: 
  0.000  0.000  0.000  0.000  0.000  1.000  1.000  1.000  1.000  1.000
 eigenvectors:
  0.000  0.000  0.000  0.000  0.000  1.000  0.000  0.000  0.000  0.000
  0.000  0.000  0.000  0.000  0.000  0.000  1.000  0.000  0.000  0.000
  0.000  0.000  0.000  0.000  0.000  0.000  0.000  1.000  0.000  0.000
  0.000  0.000  0.000  0.000  0.000  0.000  0.000  0.000  1.000  0.000
  0.000  0.000  0.000  0.000  0.000  0.000  0.000  0.000  0.000  1.000
  1.000  0.000  0.000  0.000  0.000  0.000  0.000  0.000  0.000  0.000
  0.000  1.000  0.000  0.000  0.000  0.000  0.000  0.000  0.000  0.000
  0.000  0.000  1.000  0.000  0.000  0.000  0.000  0.000  0.000  0.000
  0.000  0.000  0.000  1.000  0.000  0.000  0.000  0.000  0.000  0.000
  0.000  0.000  0.000  0.000  1.000  0.000  0.000  0.000  0.000  0.000
 occupations, | n_(i1, i2)^(sigma1, sigma2) |:
  1.000  0.000  0.000  0.000  0.000  0.000  0.000  0.000  0.000  0.000
  0.000  1.000  0.000  0.000  0.000  0.000  0.000  0.000  0.000  0.000
  0.000  0.000  1.000  0.000  0.000  0.000  0.000  0.000  0.000  0.000
  0.000  0.000  0.000  1.000  0.000  0.000  0.000  0.000  0.000  0.000
  0.000  0.000  0.000  0.000  1.000  0.000  0.000  0.000  0.000  0.000
  0.000  0.000  0.000  0.000  0.000  0.000  0.000  0.000  0.000  0.000
  0.000  0.000  0.000  0.000  0.000  0.000  0.000  0.000  0.000  0.000
  0.000  0.000  0.000  0.000  0.000  0.000  0.000  0.000  0.000  0.000
  0.000  0.000  0.000  0.000  0.000  0.000  0.000  0.000  0.000  0.000
  0.000  0.000  0.000  0.000  0.000  0.000  0.000  0.000  0.000  0.000
atomic mx, my, mz =     0.000000    0.000000    5.000000
N of occupied +U levels =    5.000000
 --- exit write_ns ---

 ==============================================================================
     atom number    1 relative position :    0.0000   0.0000   3.1467
     charge :    15.978267
     magnetization :          0.000000    0.000000   15.790230
     magnetization/charge:    0.000000    0.000000    0.988232
     polar coord.: r, theta, phi [deg] :    15.790230    0.000000  360.000000

 ==============================================================================

 ==============================================================================
     atom number    2 relative position :    0.2887   0.5000   4.0109
     charge :    22.115509
     magnetization :          0.000000    0.000000    0.000004
     magnetization/charge:    0.000000    0.000000    0.000000
     polar coord.: r, theta, phi [deg] :     0.000004    0.000000  360.000000

 ==============================================================================

 ==============================================================================
     atom number    3 relative position :    0.5774   0.0000   2.2825
     charge :    22.115509
     magnetization :          0.000000    0.000000    0.000004
     magnetization/charge:    0.000000    0.000000    0.000000
     polar coord.: r, theta, phi [deg] :     0.000004    0.000000  360.000000

 ==============================================================================

 ==============================================================================
     atom number    4 relative position :    0.0000   0.0000   4.4053
     charge :     4.037224
     magnetization :          0.000000    0.000000    0.000000
     magnetization/charge:    0.000000    0.000000    0.000000
     polar coord.: r, theta, phi [deg] :     0.000000    0.000000  360.000000

 ==============================================================================

 ==============================================================================
     atom number    5 relative position :    0.0000   0.0000   1.8880
     charge :     4.037224
     magnetization :          0.000000    0.000000    0.000000
     magnetization/charge:    0.000000    0.000000    0.000000
     polar coord.: r, theta, phi [deg] :     0.000000    0.000000  360.000000

 ==============================================================================

 ==============================================================================
     atom number    6 relative position :    0.2887   0.5000   2.7788
     charge :     4.043115
     magnetization :          0.000000    0.000000    0.005536
     magnetization/charge:    0.000000    0.000000    0.001369
     polar coord.: r, theta, phi [deg] :     0.005536    0.000000  360.000000

 ==============================================================================

 ==============================================================================
     atom number    7 relative position :    0.5774   0.0000   3.5146
     charge :     4.043115
     magnetization :          0.000000    0.000000    0.005536
     magnetization/charge:    0.000000    0.000000    0.001369
     polar coord.: r, theta, phi [deg] :     0.005536    0.000000  360.000000

 ==============================================================================
 Atomic wfc used for LDA+U Projector are NOT orthogonalized
     Starting wfcs are   86 randomized atomic wfcs +   18 random wfcs

     total cpu time spent up to now is       25.1 secs

     Self-consistent Calculation

     iteration #  1     ecut=   600.00 Ry     beta= 0.40
     Davidson diagonalization with overlap
     ethr =  1.00E-02,  avg # of iterations =  9.9
 --- enter write_ns ---
 LDA+U parameters:
U(  2) =   4.0000   J(  2) =   0.0000   B(  2) =   0.0000
atom    1   Tr[ns(na)] (up, down, total) =   0.01024  0.00773  0.01797
 eigenvalues: 
  0.000  0.000  0.000  0.001  0.001  0.001  0.003  0.003  0.004  0.004
 eigenvectors:
  0.001  0.000  0.000  0.000  0.000  0.999  0.000  0.000  0.000  0.000
  0.000  0.000  0.094  0.083  0.001  0.000  0.000  0.000  0.406  0.416
  0.000  0.000  0.094  0.083  0.001  0.000  0.000  0.000  0.406  0.416
  0.000  0.001  0.404  0.416  0.002  0.000  0.000  0.000  0.094  0.084
  0.000  0.001  0.404  0.416  0.002  0.000  0.000  0.000  0.094  0.084
  0.000  0.000  0.005  0.000  0.995  0.000  0.000  0.000  0.000  0.000
  0.100  0.089  0.000  0.000  0.000  0.000  0.400  0.410  0.000  0.000
  0.100  0.089  0.000  0.000  0.000  0.000  0.400  0.410  0.000  0.000
  0.400  0.410  0.000  0.001  0.000  0.000  0.100  0.089  0.000  0.000
  0.400  0.410  0.000  0.001  0.000  0.000  0.100  0.089  0.000  0.000
 occupations, | n_(i1, i2)^(sigma1, sigma2) |:
  0.001  0.000  0.000  0.000  0.000  0.000  0.000  0.000  0.000  0.000
  0.000  0.003  0.000  0.001  0.000  0.000  0.000  0.000  0.000  0.000
  0.000  0.000  0.003  0.000  0.001  0.000  0.000  0.000  0.000  0.000
  0.000  0.001  0.000  0.001  0.000  0.000  0.000  0.000  0.000  0.000
  0.000  0.000  0.001  0.000  0.001  0.000  0.000  0.000  0.000  0.000
  0.000  0.000  0.000  0.000  0.000  0.001  0.000  0.000  0.000  0.000
  0.000  0.000  0.000  0.000  0.000  0.000  0.003  0.000  0.001  0.000
  0.000  0.000  0.000  0.000  0.000  0.000  0.000  0.003  0.000  0.001
  0.000  0.000  0.000  0.000  0.000  0.000  0.001  0.000  0.001  0.000
  0.000  0.000  0.000  0.000  0.000  0.000  0.000  0.001  0.000  0.001
atomic mx, my, mz =    -0.000000   -0.000000    0.002504
N of occupied +U levels =    0.017971
 --- exit write_ns ---

     negative rho (up, down):  6.087E-07 0.000E+00
 --- in v_hubbard ---
Hub. E (dc, noflip, flip, total)   -0.0026   0.0000  -0.0000   0.0026
 -------

     total cpu time spent up to now is      205.1 secs

     total energy              =    -702.43326303 Ry
     Harris-Foulkes estimate   =   -1184.98529646 Ry
     estimated scf accuracy    <     781.41259510 Ry

     total magnetization       =     0.00     0.00     3.07 Bohr mag/cell
     absolute magnetization    =     3.20 Bohr mag/cell

     iteration #  2     ecut=   600.00 Ry     beta= 0.40
     Davidson diagonalization with overlap
     c_bands:  1 eigenvalues not converged
     c_bands:  1 eigenvalues not converged
     c_bands:  2 eigenvalues not converged
     ethr =  1.00E-02,  avg # of iterations = 20.3
 --- enter write_ns ---
 LDA+U parameters:
U(  2) =   4.0000   J(  2) =   0.0000   B(  2) =   0.0000
atom    1   Tr[ns(na)] (up, down, total) =   4.95306  4.97413  9.92719
 eigenvalues: 
  0.990  0.990  0.990  0.991  0.991  0.992  0.994  0.994  0.997  0.997
 eigenvectors:
  0.999  0.000  0.000  0.000  0.000  0.000  0.000  0.001  0.000  0.000
  0.000  0.464  0.484  0.035  0.016  0.000  0.000  0.000  0.000  0.000
  0.000  0.464  0.484  0.035  0.016  0.000  0.000  0.000  0.000  0.000
  0.000  0.036  0.016  0.464  0.483  0.001  0.000  0.000  0.000  0.000
  0.000  0.036  0.016  0.464  0.483  0.001  0.000  0.000  0.000  0.000
  0.000  0.000  0.000  0.002  0.000  0.998  0.000  0.000  0.000  0.000
  0.000  0.000  0.000  0.000  0.000  0.000  0.500  0.500  0.000  0.000
  0.000  0.000  0.000  0.000  0.000  0.000  0.500  0.500  0.000  0.000
  0.000  0.000  0.000  0.000  0.000  0.000  0.000  0.000  0.500  0.500
  0.000  0.000  0.000  0.000  0.000  0.000  0.000  0.000  0.500  0.500
 occupations, | n_(i1, i2)^(sigma1, sigma2) |:
  0.990  0.000  0.000  0.000  0.000  0.000  0.000  0.000  0.000  0.000
  0.000  0.990  0.000  0.000  0.000  0.000  0.000  0.000  0.000  0.000
  0.000  0.000  0.990  0.000  0.000  0.000  0.000  0.000  0.000  0.000
  0.000  0.000  0.000  0.991  0.000  0.000  0.000  0.000  0.000  0.000
  0.000  0.000  0.000  0.000  0.991  0.000  0.000  0.000  0.000  0.000
  0.000  0.000  0.000  0.000  0.000  0.992  0.000  0.000  0.000  0.000
  0.000  0.000  0.000  0.000  0.000  0.000  0.994  0.000  0.000  0.000
  0.000  0.000  0.000  0.000  0.000  0.000  0.000  0.994  0.000  0.000
  0.000  0.000  0.000  0.000  0.000  0.000  0.000  0.000  0.997  0.000
  0.000  0.000  0.000  0.000  0.000  0.000  0.000  0.000  0.000  0.997
atomic mx, my, mz =     0.000000    0.000000   -0.021076
N of occupied +U levels =    9.927187
 --- exit write_ns ---

     negative rho (up, down):  4.663E-07 0.000E+00
 --- in v_hubbard ---
Hub. E (dc, noflip, flip, total)    0.1229   0.3147  -0.0000   0.1917
 -------

     total cpu time spent up to now is      556.7 secs

     total energy              =   -1040.98881681 Ry
     Harris-Foulkes estimate   =   -1511.64014622 Ry
     estimated scf accuracy    <    1717.49339114 Ry

     total magnetization       =    -0.00     0.00     2.39 Bohr mag/cell
     absolute magnetization    =     2.68 Bohr mag/cell

     iteration #  3     ecut=   600.00 Ry     beta= 0.40
     Davidson diagonalization with overlap
     ethr =  1.00E-02,  avg # of iterations = 17.3
 --- enter write_ns ---
 LDA+U parameters:
U(  2) =   4.0000   J(  2) =   0.0000   B(  2) =   0.0000
atom    1   Tr[ns(na)] (up, down, total) =   0.06286  0.04875  0.11161
 eigenvalues: 
  0.003  0.004  0.004  0.005  0.009  0.010  0.016  0.017  0.021  0.022
 eigenvectors:
  0.000  0.000  0.000  0.000  0.000  0.987  0.000  0.013  0.000  0.000
  0.000  0.001  0.049  0.057  0.000  0.000  0.000  0.000  0.450  0.442
  0.000  0.001  0.049  0.057  0.000  0.000  0.000  0.000  0.450  0.442
  0.000  0.013  0.450  0.429  0.001  0.000  0.000  0.000  0.049  0.058
  0.000  0.013  0.450  0.429  0.001  0.000  0.000  0.000  0.049  0.058
  0.000  0.000  0.001  0.000  0.998  0.000  0.000  0.000  0.002  0.000
  0.014  0.021  0.000  0.000  0.000  0.006  0.479  0.480  0.000  0.000
  0.014  0.021  0.000  0.000  0.000  0.006  0.479  0.480  0.000  0.000
  0.486  0.465  0.000  0.014  0.000  0.000  0.021  0.014  0.000  0.000
  0.486  0.465  0.000  0.014  0.000  0.000  0.021  0.014  0.000  0.000
 occupations, | n_(i1, i2)^(sigma1, sigma2) |:
  0.010  0.000  0.000  0.000  0.000  0.000  0.000  0.000  0.000  0.000
  0.000  0.020  0.001  0.005  0.000  0.000  0.000  0.000  0.000  0.000
  0.000  0.001  0.020  0.000  0.005  0.000  0.000  0.000  0.000  0.000
  0.000  0.005  0.000  0.006  0.000  0.000  0.000  0.000  0.000  0.000
  0.000  0.000  0.005  0.000  0.006  0.000  0.000  0.000  0.000  0.000
  0.000  0.000  0.000  0.000  0.000  0.009  0.000  0.000  0.000  0.000
  0.000  0.000  0.000  0.000  0.000  0.000  0.016  0.000  0.002  0.000
  0.000  0.000  0.000  0.000  0.000  0.000  0.000  0.016  0.000  0.002
  0.000  0.000  0.000  0.000  0.000  0.000  0.002  0.000  0.004  0.000
  0.000  0.000  0.000  0.000  0.000  0.000  0.000  0.002  0.000  0.004
atomic mx, my, mz =     0.000000   -0.000000    0.014116
N of occupied +U levels =    0.111607
 --- exit write_ns ---

     negative rho (up, down):  3.390E-07 0.000E+00
 --- in v_hubbard ---
Hub. E (dc, noflip, flip, total)    0.0284   0.1797  -0.0000   0.1514
 -------

     total cpu time spent up to now is      790.6 secs

     total energy              =   -1156.49004772 Ry
     Harris-Foulkes estimate   =   -1229.89188390 Ry
     estimated scf accuracy    <     230.79421057 Ry

     total magnetization       =     0.00     0.00     0.21 Bohr mag/cell
     absolute magnetization    =     0.47 Bohr mag/cell

     iteration #  4     ecut=   600.00 Ry     beta= 0.40
     Davidson diagonalization with overlap
     c_bands:  1 eigenvalues not converged
     ethr =  1.00E-02,  avg # of iterations = 17.4
 --- enter write_ns ---
 LDA+U parameters:
U(  2) =   4.0000   J(  2) =   0.0000   B(  2) =   0.0000
atom    1   Tr[ns(na)] (up, down, total) =   4.88085  3.39001  8.27086
 eigenvalues: 
  0.414  0.428  0.662  0.932  0.954  0.974  0.974  0.975  0.979  0.979
 eigenvectors:
  0.000  0.000  0.000  0.000  0.000  0.000  0.000  1.000  0.000  0.000
  0.000  0.000  0.000  0.000  0.000  0.146  0.145  0.000  0.355  0.354
  0.000  0.000  0.000  0.000  0.000  0.146  0.145  0.000  0.355  0.354
  0.000  0.000  0.000  0.000  0.000  0.354  0.355  0.000  0.145  0.146
  0.000  0.000  0.000  0.000  0.000  0.354  0.355  0.000  0.145  0.146
  0.000  0.000  1.000  0.000  0.000  0.000  0.000  0.000  0.000  0.000
  0.082  0.071  0.000  0.429  0.418  0.000  0.000  0.000  0.000  0.000
  0.082  0.071  0.000  0.429  0.418  0.000  0.000  0.000  0.000  0.000
  0.418  0.429  0.000  0.071  0.082  0.000  0.000  0.000  0.000  0.000
  0.418  0.429  0.000  0.071  0.082  0.000  0.000  0.000  0.000  0.000
 occupations, | n_(i1, i2)^(sigma1, sigma2) |:
  0.975  0.000  0.000  0.000  0.000  0.000  0.000  0.000  0.000  0.000
  0.000  0.978  0.000  0.003  0.000  0.000  0.000  0.000  0.000  0.000
  0.000  0.000  0.978  0.000  0.003  0.000  0.000  0.000  0.000  0.000
  0.000  0.003  0.000  0.975  0.000  0.000  0.000  0.000  0.000  0.000
  0.000  0.000  0.003  0.000  0.975  0.000  0.000  0.000  0.000  0.000
  0.000  0.000  0.000  0.000  0.000  0.662  0.000  0.000  0.000  0.000
  0.000  0.000  0.000  0.000  0.000  0.000  0.863  0.003  0.188  0.012
  0.000  0.000  0.000  0.000  0.000  0.000  0.003  0.863  0.012  0.188
  0.000  0.000  0.000  0.000  0.000  0.000  0.188  0.012  0.501  0.001
  0.000  0.000  0.000  0.000  0.000  0.000  0.012  0.188  0.001  0.501
atomic mx, my, mz =    -0.000000   -0.000000    1.490834
N of occupied +U levels =    8.270857
 --- exit write_ns ---

     negative rho (up, down):  2.547E-07 0.000E+00
 --- in v_hubbard ---
Hub. E (dc, noflip, flip, total)    0.9334   1.2380  -0.0000   0.3046
 -------

     total cpu time spent up to now is      910.6 secs

     total energy              =   -1138.63449325 Ry
     Harris-Foulkes estimate   =   -1176.94718639 Ry
     estimated scf accuracy    <     147.11964978 Ry

     total magnetization       =     0.00     0.00     2.19 Bohr mag/cell
     absolute magnetization    =     2.27 Bohr mag/cell

     iteration #  5     ecut=   600.00 Ry     beta= 0.40
     Davidson diagonalization with overlap
     ethr =  1.00E-02,  avg # of iterations =  5.3
 --- enter write_ns ---
 LDA+U parameters:
U(  2) =   4.0000   J(  2) =   0.0000   B(  2) =   0.0000
atom    1   Tr[ns(na)] (up, down, total) =   3.79269  0.21499  4.00768
 eigenvalues: 
  0.027  0.028  0.028  0.066  0.067  0.612  0.664  0.812  0.852  0.854
 eigenvectors:
  0.000  0.000  0.000  0.000  0.000  0.000  0.000  1.000  0.000  0.000
  0.000  0.000  0.000  0.000  0.000  0.405  0.387  0.000  0.113  0.095
  0.000  0.000  0.000  0.000  0.000  0.405  0.387  0.000  0.113  0.095
  0.000  0.000  0.000  0.000  0.000  0.095  0.113  0.000  0.387  0.405
  0.000  0.000  0.000  0.000  0.000  0.095  0.113  0.000  0.387  0.405
  1.000  0.000  0.000  0.000  0.000  0.000  0.000  0.000  0.000  0.000
  0.000  0.176  0.152  0.324  0.348  0.000  0.000  0.000  0.000  0.000
  0.000  0.176  0.152  0.324  0.348  0.000  0.000  0.000  0.000  0.000
  0.000  0.324  0.348  0.176  0.152  0.000  0.000  0.000  0.000  0.000
  0.000  0.324  0.348  0.176  0.152  0.000  0.000  0.000  0.000  0.000
 occupations, | n_(i1, i2)^(sigma1, sigma2) |:
  0.812  0.000  0.000  0.000  0.000  0.000  0.001  0.001  0.000  0.000
  0.000  0.682  0.024  0.087  0.008  0.002  0.001  0.001  0.001  0.001
  0.000  0.024  0.682  0.008  0.087  0.002  0.001  0.001  0.001  0.001
  0.000  0.087  0.008  0.809  0.001  0.000  0.001  0.001  0.000  0.000
  0.000  0.008  0.087  0.001  0.809  0.000  0.001  0.001  0.000  0.000
  0.000  0.002  0.002  0.000  0.000  0.027  0.000  0.000  0.000  0.000
  0.001  0.001  0.001  0.001  0.001  0.000  0.054  0.001  0.018  0.000
  0.001  0.001  0.001  0.001  0.001  0.000  0.001  0.054  0.000  0.018
  0.000  0.001  0.001  0.000  0.000  0.000  0.018  0.000  0.041  0.001
  0.000  0.001  0.001  0.000  0.000  0.000  0.000  0.018  0.001  0.041
atomic mx, my, mz =    -0.000000   -0.000000    3.577694
N of occupied +U levels =    4.007681
 --- exit write_ns ---

     negative rho (up, down):  1.821E-07 0.000E+00
 --- in v_hubbard ---
Hub. E (dc, noflip, flip, total)    1.3334   1.6461  -0.0000   0.3127
 -------

     total cpu time spent up to now is      997.4 secs

     total energy              =   -1137.39457682 Ry
     Harris-Foulkes estimate   =   -1146.69550821 Ry
     estimated scf accuracy    <      37.74762088 Ry

     total magnetization       =     0.00     0.00     3.80 Bohr mag/cell
     absolute magnetization    =     4.00 Bohr mag/cell

     iteration #  6     ecut=   600.00 Ry     beta= 0.40
     Davidson diagonalization with overlap
     ethr =  1.00E-02,  avg # of iterations =  5.4
 --- enter write_ns ---
 LDA+U parameters:
U(  2) =   4.0000   J(  2) =   0.0000   B(  2) =   0.0000
atom    1   Tr[ns(na)] (up, down, total) =   2.36844  0.13432  2.50276
 eigenvalues: 
  0.011  0.012  0.012  0.049  0.049  0.250  0.335  0.343  0.693  0.747
 eigenvectors:
  0.000  0.000  0.000  0.000  0.001  0.999  0.000  0.000  0.000  0.000
  0.000  0.000  0.000  0.000  0.000  0.000  0.428  0.387  0.072  0.113
  0.000  0.000  0.000  0.000  0.000  0.000  0.428  0.387  0.072  0.113
  0.000  0.000  0.000  0.000  0.000  0.000  0.072  0.113  0.428  0.387
  0.000  0.000  0.000  0.000  0.000  0.000  0.072  0.113  0.428  0.387
  1.000  0.000  0.000  0.000  0.000  0.000  0.000  0.000  0.000  0.000
  0.000  0.194  0.177  0.323  0.306  0.000  0.000  0.000  0.000  0.000
  0.000  0.194  0.177  0.323  0.306  0.000  0.000  0.000  0.000  0.000
  0.000  0.306  0.323  0.177  0.194  0.000  0.000  0.000  0.000  0.000
  0.000  0.306  0.323  0.177  0.194  0.000  0.000  0.000  0.000  0.000
 occupations, | n_(i1, i2)^(sigma1, sigma2) |:
  0.250  0.000  0.000  0.000  0.000  0.000  0.001  0.001  0.004  0.004
  0.000  0.411  0.024  0.147  0.022  0.000  0.002  0.002  0.002  0.002
  0.000  0.024  0.411  0.022  0.147  0.000  0.002  0.002  0.002  0.002
  0.000  0.147  0.022  0.649  0.007  0.003  0.002  0.002  0.001  0.001
  0.000  0.022  0.147  0.007  0.649  0.003  0.002  0.002  0.001  0.001
  0.000  0.000  0.000  0.003  0.003  0.011  0.000  0.000  0.000  0.000
  0.001  0.002  0.002  0.002  0.002  0.000  0.035  0.001  0.018  0.000
  0.001  0.002  0.002  0.002  0.002  0.000  0.001  0.035  0.000  0.018
  0.004  0.002  0.002  0.001  0.001  0.000  0.018  0.000  0.026  0.001
  0.004  0.002  0.002  0.001  0.001  0.000  0.000  0.018  0.001  0.026
atomic mx, my, mz =    -0.000000   -0.000000    2.234125
N of occupied +U levels =    2.502764
 --- exit write_ns ---

     negative rho (up, down):  1.611E-07 0.000E+00
 --- in v_hubbard ---
Hub. E (dc, noflip, flip, total)    0.9668   1.2686  -0.0000   0.3018
 -------

     total cpu time spent up to now is     1071.7 secs

     total energy              =   -1138.17801834 Ry
     Harris-Foulkes estimate   =   -1139.71747711 Ry
     estimated scf accuracy    <      20.80389545 Ry

     total magnetization       =    -0.00     0.00     2.40 Bohr mag/cell
     absolute magnetization    =     2.83 Bohr mag/cell

     iteration #  7     ecut=   600.00 Ry     beta= 0.40
     Davidson diagonalization with overlap
     ethr =  1.00E-02,  avg # of iterations =  3.2
 --- enter write_ns ---
 LDA+U parameters:
U(  2) =   4.0000   J(  2) =   0.0000   B(  2) =   0.0000
atom    1   Tr[ns(na)] (up, down, total) =   4.92003  0.32231  5.24234
 eigenvalues: 
  0.039  0.045  0.049  0.094  0.095  0.983  0.984  0.984  0.985  0.985
 eigenvectors:
  0.000  0.000  0.000  0.000  0.000  1.000  0.000  0.000  0.000  0.000
  0.000  0.000  0.000  0.000  0.000  0.000  0.128  0.288  0.372  0.212
  0.000  0.000  0.000  0.000  0.000  0.000  0.128  0.288  0.372  0.212
  0.000  0.000  0.000  0.000  0.000  0.000  0.372  0.212  0.128  0.288
  0.000  0.000  0.000  0.000  0.000  0.000  0.372  0.212  0.128  0.288
  1.000  0.000  0.000  0.000  0.000  0.000  0.000  0.000  0.000  0.000
  0.000  0.120  0.138  0.362  0.380  0.000  0.000  0.000  0.000  0.000
  0.000  0.120  0.138  0.362  0.380  0.000  0.000  0.000  0.000  0.000
  0.000  0.380  0.362  0.138  0.120  0.000  0.000  0.000  0.000  0.000
  0.000  0.380  0.362  0.138  0.120  0.000  0.000  0.000  0.000  0.000
 occupations, | n_(i1, i2)^(sigma1, sigma2) |:
  0.983  0.000  0.000  0.000  0.000  0.000  0.001  0.001  0.000  0.000
  0.000  0.984  0.000  0.001  0.000  0.000  0.001  0.001  0.000  0.000
  0.000  0.000  0.984  0.000  0.001  0.000  0.001  0.001  0.000  0.000
  0.000  0.001  0.000  0.984  0.000  0.001  0.000  0.000  0.001  0.001
  0.000  0.000  0.001  0.000  0.984  0.001  0.000  0.000  0.001  0.001
  0.000  0.000  0.000  0.001  0.001  0.039  0.000  0.000  0.000  0.000
  0.001  0.001  0.001  0.000  0.000  0.000  0.083  0.001  0.021  0.001
  0.001  0.001  0.001  0.000  0.000  0.000  0.001  0.083  0.001  0.021
  0.000  0.000  0.000  0.001  0.001  0.000  0.021  0.001  0.059  0.003
  0.000  0.000  0.000  0.001  0.001  0.000  0.001  0.021  0.003  0.059
atomic mx, my, mz =     0.000000   -0.000000    4.597724
N of occupied +U levels =    5.242337
 --- exit write_ns ---

     negative rho (up, down):  1.694E-08 0.000E+00
 --- in v_hubbard ---
Hub. E (dc, noflip, flip, total)    1.9023   2.1490  -0.0000   0.2468
 -------

     total cpu time spent up to now is     1129.4 secs

     total energy              =   -1129.06652140 Ry
     Harris-Foulkes estimate   =   -1143.75944957 Ry
     estimated scf accuracy    <      43.00767147 Ry

     total magnetization       =     0.00    -0.00     4.60 Bohr mag/cell
     absolute magnetization    =     5.12 Bohr mag/cell

     iteration #  8     ecut=   600.00 Ry     beta= 0.40
     Davidson diagonalization with overlap
     ethr =  1.00E-02,  avg # of iterations =  4.8
 --- enter write_ns ---
 LDA+U parameters:
U(  2) =   4.0000   J(  2) =   0.0000   B(  2) =   0.0000
atom    1   Tr[ns(na)] (up, down, total) =   4.96755  0.25066  5.21821
 eigenvalues: 
  0.016  0.018  0.019  0.096  0.101  0.992  0.992  0.994  0.995  0.995
 eigenvectors:
  0.000  0.000  0.000  0.000  0.000  0.000  0.000  0.000  0.000  1.000
  0.000  0.000  0.000  0.000  0.000  0.111  0.170  0.330  0.389  0.000
  0.000  0.000  0.000  0.000  0.000  0.111  0.170  0.330  0.389  0.000
  0.000  0.000  0.000  0.000  0.000  0.389  0.330  0.170  0.111  0.000
  0.000  0.000  0.000  0.000  0.000  0.389  0.330  0.170  0.111  0.000
  1.000  0.000  0.000  0.000  0.000  0.000  0.000  0.000  0.000  0.000
  0.000  0.170  0.164  0.330  0.336  0.000  0.000  0.000  0.000  0.000
  0.000  0.170  0.164  0.330  0.336  0.000  0.000  0.000  0.000  0.000
  0.000  0.330  0.336  0.170  0.164  0.000  0.000  0.000  0.000  0.000
  0.000  0.330  0.336  0.170  0.164  0.000  0.000  0.000  0.000  0.000
 occupations, | n_(i1, i2)^(sigma1, sigma2) |:
  0.995  0.000  0.000  0.000  0.000  0.000  0.001  0.001  0.001  0.001
  0.000  0.994  0.000  0.001  0.000  0.000  0.000  0.000  0.001  0.001
  0.000  0.000  0.994  0.000  0.001  0.000  0.000  0.000  0.001  0.001
  0.000  0.001  0.000  0.993  0.000  0.000  0.000  0.000  0.001  0.001
  0.000  0.000  0.001  0.000  0.993  0.000  0.000  0.000  0.001  0.001
  0.000  0.000  0.000  0.000  0.000  0.016  0.000  0.000  0.000  0.000
  0.001  0.000  0.000  0.000  0.000  0.000  0.072  0.002  0.038  0.001
  0.001  0.000  0.000  0.000  0.000  0.000  0.002  0.072  0.001  0.038
  0.001  0.001  0.001  0.001  0.001  0.000  0.038  0.001  0.045  0.001
  0.001  0.001  0.001  0.001  0.001  0.000  0.001  0.038  0.001  0.045
atomic mx, my, mz =     0.000000   -0.000000    4.716887
N of occupied +U levels =    5.218214
 --- exit write_ns ---

     negative rho (up, down):  1.637E-08 0.000E+00
 --- in v_hubbard ---
Hub. E (dc, noflip, flip, total)    2.0156   2.2520  -0.0000   0.2364
 -------

     total cpu time spent up to now is     1203.0 secs

     total energy              =   -1134.76231980 Ry
     Harris-Foulkes estimate   =   -1135.00907957 Ry
     estimated scf accuracy    <       4.95292115 Ry

     total magnetization       =    -0.00     0.00     4.90 Bohr mag/cell
     absolute magnetization    =     5.32 Bohr mag/cell

     iteration #  9     ecut=   600.00 Ry     beta= 0.40
     Davidson diagonalization with overlap
     ethr =  5.83E-03,  avg # of iterations =  1.2
 --- enter write_ns ---
 LDA+U parameters:
U(  2) =   4.0000   J(  2) =   0.0000   B(  2) =   0.0000
atom    1   Tr[ns(na)] (up, down, total) =   4.96402  0.23338  5.19740
 eigenvalues: 
  0.015  0.017  0.017  0.090  0.094  0.990  0.990  0.995  0.995  0.995
 eigenvectors:
  0.000  0.000  0.000  0.000  0.000  0.000  0.000  0.000  1.000  0.000
  0.000  0.000  0.000  0.000  0.000  0.214  0.260  0.240  0.000  0.286
  0.000  0.000  0.000  0.000  0.000  0.214  0.260  0.240  0.000  0.286
  0.000  0.000  0.000  0.000  0.000  0.286  0.240  0.260  0.000  0.214
  0.000  0.000  0.000  0.000  0.000  0.286  0.240  0.260  0.000  0.214
  1.000  0.000  0.000  0.000  0.000  0.000  0.000  0.000  0.000  0.000
  0.000  0.172  0.165  0.328  0.335  0.000  0.000  0.000  0.000  0.000
  0.000  0.172  0.165  0.328  0.335  0.000  0.000  0.000  0.000  0.000
  0.000  0.328  0.335  0.172  0.165  0.000  0.000  0.000  0.000  0.000
  0.000  0.328  0.335  0.172  0.165  0.000  0.000  0.000  0.000  0.000
 occupations, | n_(i1, i2)^(sigma1, sigma2) |:
  0.995  0.000  0.000  0.000  0.000  0.000  0.001  0.001  0.001  0.001
  0.000  0.992  0.000  0.003  0.000  0.000  0.000  0.000  0.001  0.001
  0.000  0.000  0.992  0.000  0.003  0.000  0.000  0.000  0.001  0.001
  0.000  0.003  0.000  0.992  0.000  0.000  0.000  0.000  0.001  0.001
  0.000  0.000  0.003  0.000  0.992  0.000  0.000  0.000  0.001  0.001
  0.000  0.000  0.000  0.000  0.000  0.015  0.000  0.000  0.000  0.000
  0.001  0.000  0.000  0.000  0.000  0.000  0.067  0.002  0.035  0.001
  0.001  0.000  0.000  0.000  0.000  0.000  0.002  0.067  0.001  0.035
  0.001  0.001  0.001  0.001  0.001  0.000  0.035  0.001  0.042  0.000
  0.001  0.001  0.001  0.001  0.001  0.000  0.001  0.035  0.000  0.042
atomic mx, my, mz =     0.000000   -0.000000    4.730633
N of occupied +U levels =    5.197403
 --- exit write_ns ---

     negative rho (up, down):  1.231E-08 0.000E+00
 --- in v_hubbard ---
Hub. E (dc, noflip, flip, total)    2.3496   2.5388  -0.0000   0.1892
 -------

     total cpu time spent up to now is     1253.3 secs

     total energy              =   -1134.30534282 Ry
     Harris-Foulkes estimate   =   -1134.83929038 Ry
     estimated scf accuracy    <       4.20564733 Ry

     total magnetization       =     0.00     0.00     4.88 Bohr mag/cell
     absolute magnetization    =     5.38 Bohr mag/cell

     iteration # 10     ecut=   600.00 Ry     beta= 0.40
     Davidson diagonalization with overlap
     ethr =  4.95E-03,  avg # of iterations =  1.0
 --- enter write_ns ---
 LDA+U parameters:
U(  2) =   4.0000   J(  2) =   0.0000   B(  2) =   0.0000
atom    1   Tr[ns(na)] (up, down, total) =   4.95577  0.23525  5.19102
 eigenvalues: 
  0.015  0.017  0.017  0.093  0.093  0.987  0.987  0.994  0.994  0.994
 eigenvectors:
  0.000  0.000  0.000  0.000  0.000  0.000  0.000  1.000  0.000  0.000
  0.000  0.000  0.000  0.000  0.000  0.217  0.260  0.000  0.240  0.283
  0.000  0.000  0.000  0.000  0.000  0.217  0.260  0.000  0.240  0.283
  0.000  0.000  0.000  0.000  0.000  0.283  0.240  0.000  0.260  0.217
  0.000  0.000  0.000  0.000  0.000  0.283  0.240  0.000  0.260  0.217
  1.000  0.000  0.000  0.000  0.000  0.000  0.000  0.000  0.000  0.000
  0.000  0.176  0.162  0.324  0.338  0.000  0.000  0.000  0.000  0.000
  0.000  0.176  0.162  0.324  0.338  0.000  0.000  0.000  0.000  0.000
  0.000  0.324  0.338  0.176  0.162  0.000  0.000  0.000  0.000  0.000
  0.000  0.324  0.338  0.176  0.162  0.000  0.000  0.000  0.000  0.000
 occupations, | n_(i1, i2)^(sigma1, sigma2) |:
  0.994  0.000  0.000  0.000  0.000  0.000  0.001  0.001  0.001  0.001
  0.000  0.991  0.000  0.003  0.000  0.000  0.000  0.000  0.001  0.001
  0.000  0.000  0.991  0.000  0.003  0.000  0.000  0.000  0.001  0.001
  0.000  0.003  0.000  0.990  0.000  0.000  0.000  0.000  0.001  0.001
  0.000  0.000  0.003  0.000  0.990  0.000  0.000  0.000  0.001  0.001
  0.000  0.000  0.000  0.000  0.000  0.015  0.000  0.000  0.000  0.000
  0.001  0.000  0.000  0.000  0.000  0.000  0.067  0.001  0.036  0.000
  0.001  0.000  0.000  0.000  0.000  0.000  0.001  0.067  0.000  0.036
  0.001  0.001  0.001  0.001  0.001  0.000  0.036  0.000  0.043  0.001
  0.001  0.001  0.001  0.001  0.001  0.000  0.000  0.036  0.001  0.043
atomic mx, my, mz =     0.000000   -0.000000    4.720513
N of occupied +U levels =    5.191019
 --- exit write_ns ---
 --- in v_hubbard ---
Hub. E (dc, noflip, flip, total)    3.6782   3.6269  -0.0000  -0.0512
 -------

     total cpu time spent up to now is     1303.9 secs

     total energy              =   -1134.03813818 Ry
     Harris-Foulkes estimate   =   -1134.40778071 Ry
     estimated scf accuracy    <       1.43406355 Ry

     total magnetization       =    -0.00     0.00     4.92 Bohr mag/cell
     absolute magnetization    =     5.40 Bohr mag/cell

     iteration # 11     ecut=   600.00 Ry     beta= 0.40
     Davidson diagonalization with overlap
     ethr =  1.69E-03,  avg # of iterations =  8.9
 --- enter write_ns ---
 LDA+U parameters:
U(  2) =   4.0000   J(  2) =   0.0000   B(  2) =   0.0000
atom    1   Tr[ns(na)] (up, down, total) =   4.74023  0.13155  4.87179
 eigenvalues: 
  0.010  0.011  0.011  0.049  0.050  0.915  0.916  0.969  0.970  0.970
 eigenvectors:
  0.000  0.000  0.000  0.000  0.000  0.000  0.000  0.000  1.000  0.000
  0.000  0.000  0.000  0.000  0.000  0.319  0.276  0.181  0.000  0.224
  0.000  0.000  0.000  0.000  0.000  0.319  0.276  0.181  0.000  0.224
  0.000  0.000  0.000  0.000  0.000  0.181  0.224  0.319  0.000  0.276
  0.000  0.000  0.000  0.000  0.000  0.181  0.224  0.319  0.000  0.276
  1.000  0.000  0.000  0.000  0.000  0.000  0.000  0.000  0.000  0.000
  0.000  0.186  0.175  0.325  0.314  0.000  0.000  0.000  0.000  0.000
  0.000  0.186  0.175  0.325  0.314  0.000  0.000  0.000  0.000  0.000
  0.000  0.314  0.325  0.175  0.186  0.000  0.000  0.000  0.000  0.000
  0.000  0.314  0.325  0.175  0.186  0.000  0.000  0.000  0.000  0.000
 occupations, | n_(i1, i2)^(sigma1, sigma2) |:
  0.970  0.000  0.000  0.000  0.000  0.000  0.001  0.001  0.001  0.001
  0.000  0.937  0.003  0.026  0.001  0.001  0.001  0.001  0.001  0.001
  0.000  0.003  0.937  0.001  0.026  0.001  0.001  0.001  0.001  0.001
  0.000  0.026  0.001  0.948  0.002  0.000  0.001  0.001  0.001  0.001
  0.000  0.001  0.026  0.002  0.948  0.000  0.001  0.001  0.001  0.001
  0.000  0.001  0.001  0.000  0.000  0.010  0.000  0.000  0.000  0.000
  0.001  0.001  0.001  0.001  0.001  0.000  0.036  0.000  0.018  0.001
  0.001  0.001  0.001  0.001  0.001  0.000  0.000  0.036  0.001  0.018
  0.001  0.001  0.001  0.001  0.001  0.000  0.018  0.001  0.025  0.001
  0.001  0.001  0.001  0.001  0.001  0.000  0.001  0.018  0.001  0.025
atomic mx, my, mz =     0.000000   -0.000000    4.608679
N of occupied +U levels =    4.871789
 --- exit write_ns ---
 --- in v_hubbard ---
Hub. E (dc, noflip, flip, total)    3.4742   3.4637  -0.0000  -0.0104
 -------

     total cpu time spent up to now is     1375.1 secs

     total energy              =   -1133.80815626 Ry
     Harris-Foulkes estimate   =   -1134.31689116 Ry
     estimated scf accuracy    <       3.53863564 Ry

     total magnetization       =    -0.00    -0.00     4.72 Bohr mag/cell
     absolute magnetization    =     5.48 Bohr mag/cell

     iteration # 12     ecut=   600.00 Ry     beta= 0.40
     Davidson diagonalization with overlap
     ethr =  1.69E-03,  avg # of iterations =  3.0
 --- enter write_ns ---
 LDA+U parameters:
U(  2) =   4.0000   J(  2) =   0.0000   B(  2) =   0.0000
atom    1   Tr[ns(na)] (up, down, total) =   4.91991  0.19597  5.11588
 eigenvalues: 
  0.013  0.014  0.014  0.075  0.079  0.982  0.982  0.985  0.985  0.986
 eigenvectors:
  0.000  0.000  0.000  0.000  0.000  0.000  0.000  0.000  0.000  1.000
  0.000  0.000  0.000  0.000  0.000  0.220  0.168  0.280  0.332  0.000
  0.000  0.000  0.000  0.000  0.000  0.220  0.168  0.280  0.332  0.000
  0.000  0.000  0.000  0.000  0.000  0.280  0.332  0.220  0.168  0.000
  0.000  0.000  0.000  0.000  0.000  0.280  0.332  0.220  0.168  0.000
  1.000  0.000  0.000  0.000  0.000  0.000  0.000  0.000  0.000  0.000
  0.000  0.187  0.167  0.333  0.313  0.000  0.000  0.000  0.000  0.000
  0.000  0.187  0.167  0.333  0.313  0.000  0.000  0.000  0.000  0.000
  0.000  0.313  0.333  0.167  0.187  0.000  0.000  0.000  0.000  0.000
  0.000  0.313  0.333  0.167  0.187  0.000  0.000  0.000  0.000  0.000
 occupations, | n_(i1, i2)^(sigma1, sigma2) |:
  0.986  0.000  0.000  0.000  0.000  0.000  0.000  0.000  0.000  0.000
  0.000  0.984  0.000  0.002  0.000  0.001  0.001  0.001  0.000  0.000
  0.000  0.000  0.984  0.000  0.002  0.001  0.001  0.001  0.000  0.000
  0.000  0.002  0.000  0.983  0.000  0.001  0.000  0.000  0.001  0.001
  0.000  0.000  0.002  0.000  0.983  0.001  0.000  0.000  0.001  0.001
  0.000  0.001  0.001  0.001  0.001  0.013  0.000  0.000  0.000  0.000
  0.000  0.001  0.001  0.000  0.000  0.000  0.055  0.000  0.030  0.001
  0.000  0.001  0.001  0.000  0.000  0.000  0.000  0.055  0.001  0.030
  0.000  0.000  0.000  0.001  0.001  0.000  0.030  0.001  0.036  0.002
  0.000  0.000  0.000  0.001  0.001  0.000  0.001  0.030  0.002  0.036
atomic mx, my, mz =     0.000000   -0.000000    4.723943
N of occupied +U levels =    5.115884
 --- exit write_ns ---
 --- in v_hubbard ---
Hub. E (dc, noflip, flip, total)    3.4166   3.4185  -0.0000   0.0019
 -------

     total cpu time spent up to now is     1428.2 secs

     total energy              =   -1134.07973856 Ry
     Harris-Foulkes estimate   =   -1134.12384135 Ry
     estimated scf accuracy    <       0.47505704 Ry

     total magnetization       =    -0.00    -0.00     5.00 Bohr mag/cell
     absolute magnetization    =     5.56 Bohr mag/cell

     iteration # 13     ecut=   600.00 Ry     beta= 0.40
     Davidson diagonalization with overlap
     ethr =  5.59E-04,  avg # of iterations =  8.2
 --- enter write_ns ---
 LDA+U parameters:
U(  2) =   4.0000   J(  2) =   0.0000   B(  2) =   0.0000
atom    1   Tr[ns(na)] (up, down, total) =   4.93558  0.19705  5.13262
 eigenvalues: 
  0.013  0.015  0.015  0.075  0.079  0.985  0.985  0.989  0.989  0.989
 eigenvectors:
  0.000  0.000  0.000  0.000  0.000  0.000  0.000  1.000  0.000  0.000
  0.000  0.000  0.000  0.000  0.000  0.228  0.190  0.000  0.272  0.310
  0.000  0.000  0.000  0.000  0.000  0.228  0.190  0.000  0.272  0.310
  0.000  0.000  0.000  0.000  0.000  0.272  0.310  0.000  0.228  0.190
  0.000  0.000  0.000  0.000  0.000  0.272  0.310  0.000  0.228  0.190
  1.000  0.000  0.000  0.000  0.000  0.000  0.000  0.000  0.000  0.000
  0.000  0.185  0.165  0.335  0.315  0.000  0.000  0.000  0.000  0.000
  0.000  0.185  0.165  0.335  0.315  0.000  0.000  0.000  0.000  0.000
  0.000  0.315  0.335  0.165  0.185  0.000  0.000  0.000  0.000  0.000
  0.000  0.315  0.335  0.165  0.185  0.000  0.000  0.000  0.000  0.000
 occupations, | n_(i1, i2)^(sigma1, sigma2) |:
  0.989  0.000  0.000  0.000  0.000  0.000  0.000  0.000  0.000  0.000
  0.000  0.987  0.000  0.002  0.000  0.000  0.001  0.001  0.000  0.000
  0.000  0.000  0.987  0.000  0.002  0.000  0.001  0.001  0.000  0.000
  0.000  0.002  0.000  0.986  0.000  0.001  0.000  0.000  0.000  0.000
  0.000  0.000  0.002  0.000  0.986  0.001  0.000  0.000  0.000  0.000
  0.000  0.000  0.000  0.001  0.001  0.013  0.000  0.000  0.000  0.000
  0.000  0.001  0.001  0.000  0.000  0.000  0.055  0.000  0.030  0.001
  0.000  0.001  0.001  0.000  0.000  0.000  0.000  0.055  0.001  0.030
  0.000  0.000  0.000  0.000  0.000  0.000  0.030  0.001  0.037  0.002
  0.000  0.000  0.000  0.000  0.000  0.000  0.001  0.030  0.002  0.037
atomic mx, my, mz =     0.000000   -0.000000    4.738529
N of occupied +U levels =    5.132623
 --- exit write_ns ---
 --- in v_hubbard ---
Hub. E (dc, noflip, flip, total)    3.2994   3.3222  -0.0000   0.0228
 -------

     total cpu time spent up to now is     1487.8 secs

     total energy              =   -1134.05740638 Ry
     Harris-Foulkes estimate   =   -1134.09633342 Ry
     estimated scf accuracy    <       0.23841188 Ry

     total magnetization       =    -0.00     0.00     5.00 Bohr mag/cell
     absolute magnetization    =     5.64 Bohr mag/cell

     iteration # 14     ecut=   600.00 Ry     beta= 0.40
     Davidson diagonalization with overlap
     c_bands:  1 eigenvalues not converged
     ethr =  2.80E-04,  avg # of iterations = 15.2
 --- enter write_ns ---
 LDA+U parameters:
U(  2) =   4.0000   J(  2) =   0.0000   B(  2) =   0.0000
atom    1   Tr[ns(na)] (up, down, total) =   4.96816  0.26759  5.23575
 eigenvalues: 
  0.017  0.019  0.019  0.106  0.107  0.992  0.992  0.995  0.995  0.995
 eigenvectors:
  0.000  0.000  0.000  0.000  0.000  0.000  0.000  0.000  0.000  1.000
  0.000  0.000  0.000  0.000  0.000  0.256  0.215  0.244  0.285  0.000
  0.000  0.000  0.000  0.000  0.000  0.256  0.215  0.244  0.285  0.000
  0.000  0.000  0.000  0.000  0.000  0.244  0.285  0.256  0.215  0.000
  0.000  0.000  0.000  0.000  0.000  0.244  0.285  0.256  0.215  0.000
  1.000  0.000  0.000  0.000  0.000  0.000  0.000  0.000  0.000  0.000
  0.000  0.182  0.167  0.333  0.318  0.000  0.000  0.000  0.000  0.000
  0.000  0.182  0.167  0.333  0.318  0.000  0.000  0.000  0.000  0.000
  0.000  0.318  0.333  0.167  0.182  0.000  0.000  0.000  0.000  0.000
  0.000  0.318  0.333  0.167  0.182  0.000  0.000  0.000  0.000  0.000
 occupations, | n_(i1, i2)^(sigma1, sigma2) |:
  0.995  0.000  0.000  0.000  0.000  0.000  0.000  0.000  0.000  0.000
  0.000  0.993  0.000  0.001  0.000  0.001  0.000  0.000  0.000  0.000
  0.000  0.000  0.993  0.000  0.001  0.001  0.000  0.000  0.000  0.000
  0.000  0.001  0.000  0.993  0.000  0.000  0.000  0.000  0.000  0.000
  0.000  0.000  0.001  0.000  0.993  0.000  0.000  0.000  0.000  0.000
  0.000  0.001  0.001  0.000  0.000  0.017  0.000  0.000  0.000  0.000
  0.000  0.000  0.000  0.000  0.000  0.000  0.076  0.001  0.042  0.001
  0.000  0.000  0.000  0.000  0.000  0.000  0.001  0.076  0.001  0.042
  0.000  0.000  0.000  0.000  0.000  0.000  0.042  0.001  0.049  0.001
  0.000  0.000  0.000  0.000  0.000  0.000  0.001  0.042  0.001  0.049
atomic mx, my, mz =     0.000000   -0.000000    4.700563
N of occupied +U levels =    5.235752
 --- exit write_ns ---
 --- in v_hubbard ---
Hub. E (dc, noflip, flip, total)    3.1922   3.2416  -0.0000   0.0494
 -------

     total cpu time spent up to now is     1576.9 secs

     total energy              =   -1134.06549206 Ry
     Harris-Foulkes estimate   =   -1134.09734453 Ry
     estimated scf accuracy    <       0.10443718 Ry

     total magnetization       =    -0.00     0.00     5.00 Bohr mag/cell
     absolute magnetization    =     5.93 Bohr mag/cell

     iteration # 15     ecut=   600.00 Ry     beta= 0.40
     Davidson diagonalization with overlap
     ethr =  1.23E-04,  avg # of iterations =  8.7
 --- enter write_ns ---
 LDA+U parameters:
U(  2) =   4.0000   J(  2) =   0.0000   B(  2) =   0.0000
atom    1   Tr[ns(na)] (up, down, total) =   4.97718  0.39152  5.36869
 eigenvalues: 
  0.022  0.023  0.025  0.160  0.162  0.994  0.994  0.997  0.997  0.997
 eigenvectors:
  0.000  0.000  0.000  0.000  0.000  0.000  0.000  0.000  0.000  1.000
  0.000  0.000  0.000  0.000  0.000  0.277  0.236  0.223  0.264  0.000
  0.000  0.000  0.000  0.000  0.000  0.277  0.236  0.223  0.264  0.000
  0.000  0.000  0.000  0.000  0.000  0.223  0.264  0.277  0.236  0.000
  0.000  0.000  0.000  0.000  0.000  0.223  0.264  0.277  0.236  0.000
  1.000  0.000  0.000  0.000  0.000  0.000  0.000  0.000  0.000  0.000
  0.000  0.185  0.166  0.334  0.315  0.000  0.000  0.000  0.000  0.000
  0.000  0.185  0.166  0.334  0.315  0.000  0.000  0.000  0.000  0.000
  0.000  0.315  0.334  0.166  0.185  0.000  0.000  0.000  0.000  0.000
  0.000  0.315  0.334  0.166  0.185  0.000  0.000  0.000  0.000  0.000
 occupations, | n_(i1, i2)^(sigma1, sigma2) |:
  0.997  0.000  0.000  0.000  0.000  0.000  0.001  0.001  0.000  0.000
  0.000  0.995  0.000  0.001  0.000  0.001  0.000  0.000  0.000  0.000
  0.000  0.000  0.995  0.000  0.001  0.001  0.000  0.000  0.000  0.000
  0.000  0.001  0.000  0.995  0.000  0.000  0.000  0.000  0.000  0.000
  0.000  0.000  0.001  0.000  0.995  0.000  0.000  0.000  0.000  0.000
  0.000  0.001  0.001  0.000  0.000  0.022  0.000  0.000  0.000  0.000
  0.001  0.000  0.000  0.000  0.000  0.000  0.113  0.002  0.065  0.002
  0.001  0.000  0.000  0.000  0.000  0.000  0.002  0.113  0.002  0.065
  0.000  0.000  0.000  0.000  0.000  0.000  0.065  0.002  0.072  0.003
  0.000  0.000  0.000  0.000  0.000  0.000  0.002  0.065  0.003  0.072
atomic mx, my, mz =     0.000000   -0.000000    4.585660
N of occupied +U levels =    5.368691
 --- exit write_ns ---
 --- in v_hubbard ---
Hub. E (dc, noflip, flip, total)    3.2978   3.3393  -0.0000   0.0415
 -------

     total cpu time spent up to now is     1662.0 secs

     total energy              =   -1134.09889848 Ry
     Harris-Foulkes estimate   =   -1134.12457879 Ry
     estimated scf accuracy    <       0.08985992 Ry

     total magnetization       =     0.00     0.00     4.96 Bohr mag/cell
     absolute magnetization    =     6.13 Bohr mag/cell

     iteration # 16     ecut=   600.00 Ry     beta= 0.40
     Davidson diagonalization with overlap
     ethr =  1.06E-04,  avg # of iterations =  2.9
 --- enter write_ns ---
 LDA+U parameters:
U(  2) =   4.0000   J(  2) =   0.0000   B(  2) =   0.0000
atom    1   Tr[ns(na)] (up, down, total) =   4.96925  0.31972  5.28897
 eigenvalues: 
  0.019  0.020  0.021  0.129  0.131  0.992  0.992  0.995  0.995  0.995
 eigenvectors:
  0.000  0.000  0.000  0.000  0.000  0.000  0.000  0.000  0.000  1.000
  0.000  0.000  0.000  0.000  0.000  0.276  0.230  0.224  0.270  0.000
  0.000  0.000  0.000  0.000  0.000  0.276  0.230  0.224  0.270  0.000
  0.000  0.000  0.000  0.000  0.000  0.224  0.270  0.276  0.230  0.000
  0.000  0.000  0.000  0.000  0.000  0.224  0.270  0.276  0.230  0.000
  1.000  0.000  0.000  0.000  0.000  0.000  0.000  0.000  0.000  0.000
  0.000  0.186  0.168  0.332  0.314  0.000  0.000  0.000  0.000  0.000
  0.000  0.186  0.168  0.332  0.314  0.000  0.000  0.000  0.000  0.000
  0.000  0.314  0.332  0.168  0.186  0.000  0.000  0.000  0.000  0.000
  0.000  0.314  0.332  0.168  0.186  0.000  0.000  0.000  0.000  0.000
 occupations, | n_(i1, i2)^(sigma1, sigma2) |:
  0.995  0.000  0.000  0.000  0.000  0.000  0.001  0.001  0.000  0.000
  0.000  0.993  0.000  0.002  0.000  0.001  0.000  0.000  0.000  0.000
  0.000  0.000  0.993  0.000  0.002  0.001  0.000  0.000  0.000  0.000
  0.000  0.002  0.000  0.993  0.000  0.000  0.000  0.000  0.001  0.001
  0.000  0.000  0.002  0.000  0.993  0.000  0.000  0.000  0.001  0.001
  0.000  0.001  0.001  0.000  0.000  0.019  0.000  0.000  0.000  0.000
  0.001  0.000  0.000  0.000  0.000  0.000  0.091  0.001  0.052  0.001
  0.001  0.000  0.000  0.000  0.000  0.000  0.001  0.091  0.001  0.052
  0.000  0.000  0.000  0.001  0.001  0.000  0.052  0.001  0.059  0.002
  0.000  0.000  0.000  0.001  0.001  0.000  0.001  0.052  0.002  0.059
atomic mx, my, mz =     0.000000   -0.000000    4.649534
N of occupied +U levels =    5.288970
 --- exit write_ns ---
 --- in v_hubbard ---
Hub. E (dc, noflip, flip, total)    3.3226   3.3686  -0.0000   0.0460
 -------

     total cpu time spent up to now is     1722.4 secs

     total energy              =   -1134.11322486 Ry
     Harris-Foulkes estimate   =   -1134.11753948 Ry
     estimated scf accuracy    <       0.00977420 Ry

     total magnetization       =     0.00     0.00     4.98 Bohr mag/cell
     absolute magnetization    =     6.25 Bohr mag/cell

     iteration # 17     ecut=   600.00 Ry     beta= 0.40
     Davidson diagonalization with overlap
     c_bands:  1 eigenvalues not converged
     c_bands:  3 eigenvalues not converged
     c_bands:  4 eigenvalues not converged
     ethr =  1.15E-05,  avg # of iterations = 14.7
 --- enter write_ns ---
 LDA+U parameters:
U(  2) =   4.0000   J(  2) =   0.0000   B(  2) =   0.0000
atom    1   Tr[ns(na)] (up, down, total) =   4.96390  0.30735  5.27126
 eigenvalues: 
  0.018  0.019  0.020  0.124  0.126  0.990  0.990  0.994  0.995  0.995
 eigenvectors:
  0.000  0.000  0.000  0.000  0.000  0.000  0.000  0.000  0.000  1.000
  0.000  0.000  0.000  0.000  0.000  0.283  0.236  0.217  0.264  0.000
  0.000  0.000  0.000  0.000  0.000  0.283  0.236  0.217  0.264  0.000
  0.000  0.000  0.000  0.000  0.000  0.217  0.264  0.283  0.236  0.000
  0.000  0.000  0.000  0.000  0.000  0.217  0.264  0.283  0.236  0.000
  1.000  0.000  0.000  0.000  0.000  0.000  0.000  0.000  0.000  0.000
  0.000  0.187  0.169  0.331  0.313  0.000  0.000  0.000  0.000  0.000
  0.000  0.187  0.169  0.331  0.313  0.000  0.000  0.000  0.000  0.000
  0.000  0.313  0.331  0.169  0.187  0.000  0.000  0.000  0.000  0.000
  0.000  0.313  0.331  0.169  0.187  0.000  0.000  0.000  0.000  0.000
 occupations, | n_(i1, i2)^(sigma1, sigma2) |:
  0.995  0.000  0.000  0.000  0.000  0.000  0.002  0.002  0.001  0.001
  0.000  0.992  0.000  0.002  0.000  0.001  0.001  0.001  0.000  0.000
  0.000  0.000  0.992  0.000  0.002  0.001  0.001  0.001  0.000  0.000
  0.000  0.002  0.000  0.992  0.000  0.000  0.000  0.000  0.001  0.001
  0.000  0.000  0.002  0.000  0.992  0.000  0.000  0.000  0.001  0.001
  0.000  0.001  0.001  0.000  0.000  0.018  0.000  0.000  0.000  0.000
  0.002  0.001  0.001  0.000  0.000  0.000  0.087  0.001  0.051  0.001
  0.002  0.001  0.001  0.000  0.000  0.000  0.001  0.087  0.001  0.051
  0.001  0.000  0.000  0.001  0.001  0.000  0.051  0.001  0.057  0.002
  0.001  0.000  0.000  0.001  0.001  0.000  0.001  0.051  0.002  0.057
atomic mx, my, mz =     0.000000   -0.000000    4.656553
N of occupied +U levels =    5.271257
 --- exit write_ns ---
 --- in v_hubbard ---
Hub. E (dc, noflip, flip, total)    3.3217   3.3675  -0.0000   0.0458
 -------

     total cpu time spent up to now is     1832.9 secs

     total energy              =   -1134.14980165 Ry
     Harris-Foulkes estimate   =   -1134.14237438 Ry
     estimated scf accuracy    <       0.00301253 Ry

     total magnetization       =     0.00    -0.00     4.97 Bohr mag/cell
     absolute magnetization    =     6.57 Bohr mag/cell

     iteration # 18     ecut=   600.00 Ry     beta= 0.40
     Davidson diagonalization with overlap
     c_bands:  2 eigenvalues not converged
     ethr =  3.54E-06,  avg # of iterations =  8.3
 --- enter write_ns ---
 LDA+U parameters:
U(  2) =   4.0000   J(  2) =   0.0000   B(  2) =   0.0000
atom    1   Tr[ns(na)] (up, down, total) =   4.96326  0.30565  5.26891
 eigenvalues: 
  0.019  0.019  0.020  0.123  0.125  0.990  0.990  0.994  0.994  0.995
 eigenvectors:
  0.000  0.000  0.000  0.000  0.000  0.000  0.000  0.000  0.000  1.000
  0.000  0.000  0.000  0.000  0.000  0.283  0.235  0.217  0.265  0.000
  0.000  0.000  0.000  0.000  0.000  0.283  0.235  0.217  0.265  0.000
  0.000  0.000  0.000  0.000  0.000  0.217  0.265  0.283  0.235  0.000
  0.000  0.000  0.000  0.000  0.000  0.217  0.265  0.283  0.235  0.000
  1.000  0.000  0.000  0.000  0.000  0.000  0.000  0.000  0.000  0.000
  0.000  0.188  0.169  0.331  0.312  0.000  0.000  0.000  0.000  0.000
  0.000  0.188  0.169  0.331  0.312  0.000  0.000  0.000  0.000  0.000
  0.000  0.312  0.331  0.169  0.188  0.000  0.000  0.000  0.000  0.000
  0.000  0.312  0.331  0.169  0.188  0.000  0.000  0.000  0.000  0.000
 occupations, | n_(i1, i2)^(sigma1, sigma2) |:
  0.995  0.000  0.000  0.000  0.000  0.000  0.002  0.002  0.001  0.001
  0.000  0.992  0.000  0.002  0.000  0.001  0.001  0.001  0.000  0.000
  0.000  0.000  0.992  0.000  0.002  0.001  0.001  0.001  0.000  0.000
  0.000  0.002  0.000  0.992  0.000  0.000  0.000  0.000  0.001  0.001
  0.000  0.000  0.002  0.000  0.992  0.000  0.000  0.000  0.001  0.001
  0.000  0.001  0.001  0.000  0.000  0.019  0.000  0.000  0.000  0.000
  0.002  0.001  0.001  0.000  0.000  0.000  0.087  0.001  0.050  0.001
  0.002  0.001  0.001  0.000  0.000  0.000  0.001  0.087  0.001  0.050
  0.001  0.000  0.000  0.001  0.001  0.000  0.050  0.001  0.057  0.002
  0.001  0.000  0.000  0.001  0.001  0.000  0.001  0.050  0.002  0.057
atomic mx, my, mz =     0.000000   -0.000000    4.657603
N of occupied +U levels =    5.268911
 --- exit write_ns ---
 --- in v_hubbard ---
Hub. E (dc, noflip, flip, total)    3.3073   3.3517  -0.0000   0.0443
 -------

     total cpu time spent up to now is     1911.9 secs

     total energy              =   -1134.15481214 Ry
     Harris-Foulkes estimate   =   -1134.15124689 Ry
     estimated scf accuracy    <       0.00207599 Ry

     total magnetization       =     0.00    -0.00     4.97 Bohr mag/cell
     absolute magnetization    =     6.64 Bohr mag/cell

     iteration # 19     ecut=   600.00 Ry     beta= 0.40
     Davidson diagonalization with overlap
     ethr =  2.44E-06,  avg # of iterations =  6.8
 --- enter write_ns ---
 LDA+U parameters:
U(  2) =   4.0000   J(  2) =   0.0000   B(  2) =   0.0000
atom    1   Tr[ns(na)] (up, down, total) =   4.96332  0.30725  5.27058
 eigenvalues: 
  0.019  0.019  0.020  0.123  0.126  0.990  0.990  0.994  0.994  0.995
 eigenvectors:
  0.000  0.000  0.000  0.000  0.000  0.000  0.000  0.000  0.000  1.000
  0.000  0.000  0.000  0.000  0.000  0.282  0.234  0.218  0.266  0.000
  0.000  0.000  0.000  0.000  0.000  0.282  0.234  0.218  0.266  0.000
  0.000  0.000  0.000  0.000  0.000  0.218  0.266  0.282  0.234  0.000
  0.000  0.000  0.000  0.000  0.000  0.218  0.266  0.282  0.234  0.000
  1.000  0.000  0.000  0.000  0.000  0.000  0.000  0.000  0.000  0.000
  0.000  0.187  0.170  0.330  0.313  0.000  0.000  0.000  0.000  0.000
  0.000  0.187  0.170  0.330  0.313  0.000  0.000  0.000  0.000  0.000
  0.000  0.313  0.330  0.170  0.187  0.000  0.000  0.000  0.000  0.000
  0.000  0.313  0.330  0.170  0.187  0.000  0.000  0.000  0.000  0.000
 occupations, | n_(i1, i2)^(sigma1, sigma2) |:
  0.995  0.000  0.000  0.000  0.000  0.000  0.002  0.002  0.001  0.001
  0.000  0.992  0.000  0.002  0.000  0.002  0.001  0.001  0.000  0.000
  0.000  0.000  0.992  0.000  0.002  0.002  0.001  0.001  0.000  0.000
  0.000  0.002  0.000  0.992  0.000  0.000  0.000  0.000  0.000  0.000
  0.000  0.000  0.002  0.000  0.992  0.000  0.000  0.000  0.000  0.000
  0.000  0.002  0.002  0.000  0.000  0.019  0.000  0.000  0.000  0.000
  0.002  0.001  0.001  0.000  0.000  0.000  0.087  0.001  0.050  0.002
  0.002  0.001  0.001  0.000  0.000  0.000  0.001  0.087  0.002  0.050
  0.001  0.000  0.000  0.000  0.000  0.000  0.050  0.002  0.057  0.002
  0.001  0.000  0.000  0.000  0.000  0.000  0.002  0.050  0.002  0.057
atomic mx, my, mz =     0.000000   -0.000000    4.656070
N of occupied +U levels =    5.270577
 --- exit write_ns ---

     negative rho (up, down):  7.549E-04 2.909E-03
 --- in v_hubbard ---
Hub. E (dc, noflip, flip, total)    3.3037   3.3483  -0.0000   0.0446
 -------

     total cpu time spent up to now is     2015.3 secs

     total energy              =   -1134.17449492 Ry
     Harris-Foulkes estimate   =   -1134.17317296 Ry
     estimated scf accuracy    <       0.00034159 Ry

     total magnetization       =    -0.00    -0.00     4.97 Bohr mag/cell
     absolute magnetization    =     6.95 Bohr mag/cell

     iteration # 20     ecut=   600.00 Ry     beta= 0.40
     Davidson diagonalization with overlap
     ethr =  4.02E-07,  avg # of iterations =  7.1
 --- enter write_ns ---
 LDA+U parameters:
U(  2) =   4.0000   J(  2) =   0.0000   B(  2) =   0.0000
atom    1   Tr[ns(na)] (up, down, total) =   4.96458  0.31382  5.27840
 eigenvalues: 
  0.019  0.020  0.020  0.125  0.129  0.990  0.990  0.995  0.995  0.995
 eigenvectors:
  0.000  0.000  0.000  0.000  0.000  0.000  0.000  0.000  0.000  1.000
  0.000  0.000  0.000  0.000  0.000  0.282  0.234  0.218  0.266  0.000
  0.000  0.000  0.000  0.000  0.000  0.282  0.234  0.218  0.266  0.000
  0.000  0.000  0.000  0.000  0.000  0.218  0.266  0.282  0.234  0.000
  0.000  0.000  0.000  0.000  0.000  0.218  0.266  0.282  0.234  0.000
  1.000  0.000  0.000  0.000  0.000  0.000  0.000  0.000  0.000  0.000
  0.000  0.187  0.170  0.330  0.313  0.000  0.000  0.000  0.000  0.000
  0.000  0.187  0.170  0.330  0.313  0.000  0.000  0.000  0.000  0.000
  0.000  0.313  0.330  0.170  0.187  0.000  0.000  0.000  0.000  0.000
  0.000  0.313  0.330  0.170  0.187  0.000  0.000  0.000  0.000  0.000
 occupations, | n_(i1, i2)^(sigma1, sigma2) |:
  0.995  0.000  0.000  0.000  0.000  0.000  0.002  0.002  0.001  0.001
  0.000  0.992  0.000  0.002  0.000  0.002  0.002  0.002  0.001  0.001
  0.000  0.000  0.992  0.000  0.002  0.002  0.002  0.002  0.001  0.001
  0.000  0.002  0.000  0.993  0.000  0.001  0.001  0.001  0.000  0.000
  0.000  0.000  0.002  0.000  0.993  0.001  0.001  0.001  0.000  0.000
  0.000  0.002  0.002  0.001  0.001  0.019  0.000  0.000  0.000  0.000
  0.002  0.002  0.002  0.001  0.001  0.000  0.089  0.001  0.051  0.002
  0.002  0.002  0.002  0.001  0.001  0.000  0.001  0.089  0.002  0.051
  0.001  0.001  0.001  0.000  0.000  0.000  0.051  0.002  0.058  0.002
  0.001  0.001  0.001  0.000  0.000  0.000  0.002  0.051  0.002  0.058
atomic mx, my, mz =     0.000000   -0.000000    4.650753
N of occupied +U levels =    5.278398
 --- exit write_ns ---

     negative rho (up, down):  9.792E-04 2.924E-03
 --- in v_hubbard ---
Hub. E (dc, noflip, flip, total)    3.3135   3.3585  -0.0000   0.0450
 -------

     total cpu time spent up to now is     2119.6 secs

     total energy              =   -1134.16269408 Ry
     Harris-Foulkes estimate   =   -1134.17848955 Ry
     estimated scf accuracy    <       0.00031442 Ry

     total magnetization       =     0.00     0.00     4.97 Bohr mag/cell
     absolute magnetization    =     7.03 Bohr mag/cell

     iteration # 21     ecut=   600.00 Ry     beta= 0.40
     Davidson diagonalization with overlap
     ethr =  3.70E-07,  avg # of iterations =  7.2
 --- enter write_ns ---
 LDA+U parameters:
U(  2) =   4.0000   J(  2) =   0.0000   B(  2) =   0.0000
atom    1   Tr[ns(na)] (up, down, total) =   4.96394  0.31189  5.27583
 eigenvalues: 
  0.019  0.019  0.020  0.125  0.128  0.990  0.990  0.995  0.995  0.995
 eigenvectors:
  0.000  0.000  0.000  0.000  0.000  0.000  0.000  0.000  0.000  1.000
  0.000  0.000  0.000  0.000  0.000  0.282  0.234  0.218  0.266  0.000
  0.000  0.000  0.000  0.000  0.000  0.282  0.234  0.218  0.266  0.000
  0.000  0.000  0.000  0.000  0.000  0.218  0.266  0.282  0.234  0.000
  0.000  0.000  0.000  0.000  0.000  0.218  0.266  0.282  0.234  0.000
  1.000  0.000  0.000  0.000  0.000  0.000  0.000  0.000  0.000  0.000
  0.000  0.188  0.171  0.329  0.312  0.000  0.000  0.000  0.000  0.000
  0.000  0.188  0.171  0.329  0.312  0.000  0.000  0.000  0.000  0.000
  0.000  0.312  0.329  0.171  0.188  0.000  0.000  0.000  0.000  0.000
  0.000  0.312  0.329  0.171  0.188  0.000  0.000  0.000  0.000  0.000
 occupations, | n_(i1, i2)^(sigma1, sigma2) |:
  0.995  0.000  0.000  0.000  0.000  0.000  0.002  0.002  0.001  0.001
  0.000  0.992  0.000  0.002  0.000  0.002  0.002  0.002  0.001  0.001
  0.000  0.000  0.992  0.000  0.002  0.002  0.002  0.002  0.001  0.001
  0.000  0.002  0.000  0.992  0.000  0.001  0.001  0.001  0.001  0.001
  0.000  0.000  0.002  0.000  0.992  0.001  0.001  0.001  0.001  0.001
  0.000  0.002  0.002  0.001  0.001  0.019  0.000  0.000  0.000  0.000
  0.002  0.002  0.002  0.001  0.001  0.000  0.088  0.001  0.051  0.002
  0.002  0.002  0.002  0.001  0.001  0.000  0.001  0.088  0.002  0.051
  0.001  0.001  0.001  0.001  0.001  0.000  0.051  0.002  0.058  0.002
  0.001  0.001  0.001  0.001  0.001  0.000  0.002  0.051  0.002  0.058
atomic mx, my, mz =     0.000000   -0.000000    4.652047
N of occupied +U levels =    5.275827
 --- exit write_ns ---

     negative rho (up, down):  5.448E-04 3.101E-03
 --- in v_hubbard ---
Hub. E (dc, noflip, flip, total)    3.3123   3.3576  -0.0000   0.0452
 -------

     total cpu time spent up to now is     2226.3 secs

     total energy              =   -1134.17564764 Ry
     Harris-Foulkes estimate   =   -1134.17611299 Ry
     estimated scf accuracy    <       0.00017442 Ry

     total magnetization       =     0.00     0.00     4.97 Bohr mag/cell
     absolute magnetization    =     6.98 Bohr mag/cell

     iteration # 22     ecut=   600.00 Ry     beta= 0.40
     Davidson diagonalization with overlap
     ethr =  2.05E-07,  avg # of iterations =  5.0
 --- enter write_ns ---
 LDA+U parameters:
U(  2) =   4.0000   J(  2) =   0.0000   B(  2) =   0.0000
atom    1   Tr[ns(na)] (up, down, total) =   4.96369  0.31100  5.27469
 eigenvalues: 
  0.019  0.019  0.020  0.124  0.128  0.990  0.990  0.994  0.995  0.995
 eigenvectors:
  0.000  0.000  0.000  0.000  0.000  0.000  0.000  0.000  0.000  1.000
  0.000  0.000  0.000  0.000  0.000  0.281  0.234  0.219  0.266  0.000
  0.000  0.000  0.000  0.000  0.000  0.281  0.234  0.219  0.266  0.000
  0.000  0.000  0.000  0.000  0.000  0.219  0.266  0.281  0.234  0.000
  0.000  0.000  0.000  0.000  0.000  0.219  0.266  0.281  0.234  0.000
  1.000  0.000  0.000  0.000  0.000  0.000  0.000  0.000  0.000  0.000
  0.000  0.188  0.171  0.329  0.312  0.000  0.000  0.000  0.000  0.000
  0.000  0.188  0.171  0.329  0.312  0.000  0.000  0.000  0.000  0.000
  0.000  0.312  0.329  0.171  0.188  0.000  0.000  0.000  0.000  0.000
  0.000  0.312  0.329  0.171  0.188  0.000  0.000  0.000  0.000  0.000
 occupations, | n_(i1, i2)^(sigma1, sigma2) |:
  0.995  0.000  0.000  0.000  0.000  0.000  0.002  0.002  0.001  0.001
  0.000  0.992  0.000  0.002  0.000  0.002  0.002  0.002  0.001  0.001
  0.000  0.000  0.992  0.000  0.002  0.002  0.002  0.002  0.001  0.001
  0.000  0.002  0.000  0.992  0.000  0.001  0.001  0.001  0.001  0.001
  0.000  0.000  0.002  0.000  0.992  0.001  0.001  0.001  0.001  0.001
  0.000  0.002  0.002  0.001  0.001  0.019  0.000  0.000  0.000  0.000
  0.002  0.002  0.002  0.001  0.001  0.000  0.088  0.001  0.051  0.002
  0.002  0.002  0.002  0.001  0.001  0.000  0.001  0.088  0.002  0.051
  0.001  0.001  0.001  0.001  0.001  0.000  0.051  0.002  0.058  0.002
  0.001  0.001  0.001  0.001  0.001  0.000  0.002  0.051  0.002  0.058
atomic mx, my, mz =     0.000000   -0.000000    4.652692
N of occupied +U levels =    5.274690
 --- exit write_ns ---

     negative rho (up, down):  1.350E-04 3.694E-03
 --- in v_hubbard ---
Hub. E (dc, noflip, flip, total)    3.3128   3.3583  -0.0000   0.0456
 -------

     total cpu time spent up to now is     2309.5 secs

     total energy              =   -1134.16843172 Ry
     Harris-Foulkes estimate   =   -1134.17617498 Ry
     estimated scf accuracy    <       0.00012100 Ry

     total magnetization       =     0.00     0.00     4.97 Bohr mag/cell
     absolute magnetization    =     6.99 Bohr mag/cell

     iteration # 23     ecut=   600.00 Ry     beta= 0.40
     Davidson diagonalization with overlap
     ethr =  1.42E-07,  avg # of iterations =  6.5
 --- enter write_ns ---
 LDA+U parameters:
U(  2) =   4.0000   J(  2) =   0.0000   B(  2) =   0.0000
atom    1   Tr[ns(na)] (up, down, total) =   4.96351  0.31073  5.27424
 eigenvalues: 
  0.019  0.019  0.020  0.124  0.128  0.990  0.990  0.994  0.995  0.995
 eigenvectors:
  0.000  0.000  0.000  0.000  0.000  0.000  0.000  0.000  0.000  1.000
  0.000  0.000  0.000  0.000  0.000  0.281  0.234  0.219  0.266  0.000
  0.000  0.000  0.000  0.000  0.000  0.281  0.234  0.219  0.266  0.000
  0.000  0.000  0.000  0.000  0.000  0.219  0.266  0.281  0.234  0.000
  0.000  0.000  0.000  0.000  0.000  0.219  0.266  0.281  0.234  0.000
  1.000  0.000  0.000  0.000  0.000  0.000  0.000  0.000  0.000  0.000
  0.000  0.188  0.171  0.329  0.312  0.000  0.000  0.000  0.000  0.000
  0.000  0.188  0.171  0.329  0.312  0.000  0.000  0.000  0.000  0.000
  0.000  0.312  0.329  0.171  0.188  0.000  0.000  0.000  0.000  0.000
  0.000  0.312  0.329  0.171  0.188  0.000  0.000  0.000  0.000  0.000
 occupations, | n_(i1, i2)^(sigma1, sigma2) |:
  0.995  0.000  0.000  0.000  0.000  0.000  0.002  0.002  0.001  0.001
  0.000  0.992  0.000  0.002  0.000  0.002  0.002  0.002  0.001  0.001
  0.000  0.000  0.992  0.000  0.002  0.002  0.002  0.002  0.001  0.001
  0.000  0.002  0.000  0.992  0.000  0.000  0.001  0.001  0.001  0.001
  0.000  0.000  0.002  0.000  0.992  0.000  0.001  0.001  0.001  0.001
  0.000  0.002  0.002  0.000  0.000  0.019  0.000  0.000  0.000  0.000
  0.002  0.002  0.002  0.001  0.001  0.000  0.088  0.001  0.051  0.002
  0.002  0.002  0.002  0.001  0.001  0.000  0.001  0.088  0.002  0.051
  0.001  0.001  0.001  0.001  0.001  0.000  0.051  0.002  0.058  0.002
  0.001  0.001  0.001  0.001  0.001  0.000  0.002  0.051  0.002  0.058
atomic mx, my, mz =     0.000000   -0.000000    4.652781
N of occupied +U levels =    5.274243
 --- exit write_ns ---
 --- in v_hubbard ---
Hub. E (dc, noflip, flip, total)    3.3131   3.3588  -0.0000   0.0458
 -------

     total cpu time spent up to now is     2412.4 secs

     total energy              =   -1134.16058256 Ry
     Harris-Foulkes estimate   =   -1134.17066031 Ry
     estimated scf accuracy    <       0.00009609 Ry

     total magnetization       =    -0.00     0.00     4.97 Bohr mag/cell
     absolute magnetization    =     6.95 Bohr mag/cell

     iteration # 24     ecut=   600.00 Ry     beta= 0.40
     Davidson diagonalization with overlap
     ethr =  1.13E-07,  avg # of iterations =  6.1
 --- enter write_ns ---
 LDA+U parameters:
U(  2) =   4.0000   J(  2) =   0.0000   B(  2) =   0.0000
atom    1   Tr[ns(na)] (up, down, total) =   4.96356  0.31089  5.27444
 eigenvalues: 
  0.019  0.019  0.020  0.124  0.128  0.990  0.990  0.994  0.995  0.995
 eigenvectors:
  0.000  0.000  0.000  0.000  0.000  0.000  0.000  0.000  0.000  1.000
  0.000  0.000  0.000  0.000  0.000  0.280  0.234  0.220  0.266  0.000
  0.000  0.000  0.000  0.000  0.000  0.280  0.234  0.220  0.266  0.000
  0.000  0.000  0.000  0.000  0.000  0.220  0.266  0.280  0.234  0.000
  0.000  0.000  0.000  0.000  0.000  0.220  0.266  0.280  0.234  0.000
  1.000  0.000  0.000  0.000  0.000  0.000  0.000  0.000  0.000  0.000
  0.000  0.188  0.171  0.329  0.312  0.000  0.000  0.000  0.000  0.000
  0.000  0.188  0.171  0.329  0.312  0.000  0.000  0.000  0.000  0.000
  0.000  0.312  0.329  0.171  0.188  0.000  0.000  0.000  0.000  0.000
  0.000  0.312  0.329  0.171  0.188  0.000  0.000  0.000  0.000  0.000
 occupations, | n_(i1, i2)^(sigma1, sigma2) |:
  0.995  0.000  0.000  0.000  0.000  0.000  0.002  0.002  0.001  0.001
  0.000  0.992  0.000  0.002  0.000  0.002  0.002  0.002  0.001  0.001
  0.000  0.000  0.992  0.000  0.002  0.002  0.002  0.002  0.001  0.001
  0.000  0.002  0.000  0.992  0.000  0.000  0.001  0.001  0.001  0.001
  0.000  0.000  0.002  0.000  0.992  0.000  0.001  0.001  0.001  0.001
  0.000  0.002  0.002  0.000  0.000  0.019  0.000  0.000  0.000  0.000
  0.002  0.002  0.002  0.001  0.001  0.000  0.088  0.001  0.051  0.002
  0.002  0.002  0.002  0.001  0.001  0.000  0.001  0.088  0.002  0.051
  0.001  0.001  0.001  0.001  0.001  0.000  0.051  0.002  0.058  0.002
  0.001  0.001  0.001  0.001  0.001  0.000  0.002  0.051  0.002  0.058
atomic mx, my, mz =     0.000000   -0.000000    4.652668
N of occupied +U levels =    5.274443
 --- exit write_ns ---
[...]
     estimated scf accuracy    <       0.00042306 Ry

     total magnetization       =    -0.00    -0.00     4.97 Bohr mag/cell
     absolute magnetization    =     7.60 Bohr mag/cell

     iteration #370     ecut=   600.00 Ry     beta= 0.40
     Davidson diagonalization with overlap
     ethr =  1.38E-08,  avg # of iterations =  7.4
 --- enter write_ns ---
 LDA+U parameters:
U(  2) =   4.0000   J(  2) =   0.0000   B(  2) =   0.0000
atom    1   Tr[ns(na)] (up, down, total) =   4.96322  0.31153  5.27475
 eigenvalues: 
  0.019  0.020  0.020  0.125  0.127  0.990  0.990  0.994  0.994  0.995
 eigenvectors:
  0.000  0.000  0.000  0.000  0.000  0.000  0.000  0.000  0.000  1.000
  0.000  0.000  0.000  0.000  0.000  0.267  0.239  0.233  0.261  0.000
  0.000  0.000  0.000  0.000  0.000  0.267  0.239  0.233  0.261  0.000
  0.000  0.000  0.000  0.000  0.000  0.233  0.261  0.267  0.239  0.000
  0.000  0.000  0.000  0.000  0.000  0.233  0.261  0.267  0.239  0.000
  1.000  0.000  0.000  0.000  0.000  0.000  0.000  0.000  0.000  0.000
  0.000  0.187  0.178  0.322  0.313  0.000  0.000  0.000  0.000  0.000
  0.000  0.187  0.178  0.322  0.313  0.000  0.000  0.000  0.000  0.000
  0.000  0.313  0.322  0.178  0.187  0.000  0.000  0.000  0.000  0.000
  0.000  0.313  0.322  0.178  0.187  0.000  0.000  0.000  0.000  0.000
 occupations, | n_(i1, i2)^(sigma1, sigma2) |:
  0.995  0.000  0.000  0.000  0.000  0.000  0.002  0.002  0.002  0.002
  0.000  0.992  0.000  0.002  0.000  0.002  0.005  0.005  0.001  0.001
  0.000  0.000  0.992  0.000  0.002  0.002  0.005  0.005  0.001  0.001
  0.000  0.002  0.000  0.992  0.000  0.002  0.000  0.000  0.002  0.002
  0.000  0.000  0.002  0.000  0.992  0.002  0.000  0.000  0.002  0.002
  0.000  0.002  0.002  0.002  0.002  0.019  0.000  0.000  0.000  0.000
  0.002  0.005  0.005  0.000  0.000  0.000  0.087  0.000  0.051  0.001
  0.002  0.005  0.005  0.000  0.000  0.000  0.000  0.087  0.001  0.051
  0.002  0.001  0.001  0.002  0.002  0.000  0.051  0.001  0.059  0.001
  0.002  0.001  0.001  0.002  0.002  0.000  0.001  0.051  0.001  0.059
atomic mx, my, mz =     0.000000   -0.000000    4.651683
N of occupied +U levels =    5.274752
 --- exit write_ns ---
 --- in v_hubbard ---
Hub. E (dc, noflip, flip, total)    3.3145   3.3608  -0.0000   0.0463
 -------

     total cpu time spent up to now is    42467.1 secs

     total energy              =   -1134.20912782 Ry
     Harris-Foulkes estimate   =   -1134.21068578 Ry
     estimated scf accuracy    <       0.00036081 Ry

     total magnetization       =    -0.00    -0.00     4.97 Bohr mag/cell
     absolute magnetization    =     7.60 Bohr mag/cell

     iteration #371     ecut=   600.00 Ry     beta= 0.40
     Davidson diagonalization with overlap
     ethr =  1.38E-08,  avg # of iterations =  8.1
 --- enter write_ns ---
 LDA+U parameters:
U(  2) =   4.0000   J(  2) =   0.0000   B(  2) =   0.0000
atom    1   Tr[ns(na)] (up, down, total) =   4.96343  0.31291  5.27634
 eigenvalues: 
  0.019  0.020  0.021  0.125  0.128  0.990  0.990  0.994  0.994  0.995
 eigenvectors:
  0.000  0.000  0.000  0.000  0.000  0.000  0.000  0.000  0.000  1.000
  0.000  0.000  0.000  0.000  0.000  0.266  0.238  0.234  0.262  0.000
  0.000  0.000  0.000  0.000  0.000  0.266  0.238  0.234  0.262  0.000
  0.000  0.000  0.000  0.000  0.000  0.234  0.262  0.266  0.238  0.000
  0.000  0.000  0.000  0.000  0.000  0.234  0.262  0.266  0.238  0.000
  1.000  0.000  0.000  0.000  0.000  0.000  0.000  0.000  0.000  0.000
  0.000  0.187  0.178  0.322  0.313  0.000  0.000  0.000  0.000  0.000
  0.000  0.187  0.178  0.322  0.313  0.000  0.000  0.000  0.000  0.000
  0.000  0.313  0.322  0.178  0.187  0.000  0.000  0.000  0.000  0.000
  0.000  0.313  0.322  0.178  0.187  0.000  0.000  0.000  0.000  0.000
 occupations, | n_(i1, i2)^(sigma1, sigma2) |:
  0.995  0.000  0.000  0.000  0.000  0.000  0.002  0.002  0.002  0.002
  0.000  0.992  0.000  0.002  0.000  0.002  0.005  0.005  0.001  0.001
  0.000  0.000  0.992  0.000  0.002  0.002  0.005  0.005  0.001  0.001
  0.000  0.002  0.000  0.992  0.000  0.002  0.000  0.000  0.002  0.002
  0.000  0.000  0.002  0.000  0.992  0.002  0.000  0.000  0.002  0.002
  0.000  0.002  0.002  0.002  0.002  0.019  0.000  0.000  0.000  0.000
  0.002  0.005  0.005  0.000  0.000  0.000  0.088  0.000  0.051  0.001
  0.002  0.005  0.005  0.000  0.000  0.000  0.000  0.088  0.001  0.051
  0.002  0.001  0.001  0.002  0.002  0.000  0.051  0.001  0.059  0.001
  0.002  0.001  0.001  0.002  0.002  0.000  0.001  0.051  0.001  0.059
atomic mx, my, mz =     0.000000   -0.000000    4.650525
N of occupied +U levels =    5.276336
 --- exit write_ns ---
 --- in v_hubbard ---
Hub. E (dc, noflip, flip, total)    3.3145   3.3608  -0.0000   0.0463
 -------

     total cpu time spent up to now is    42596.5 secs

     total energy              =   -1134.19560173 Ry
     Harris-Foulkes estimate   =   -1134.21510936 Ry
     estimated scf accuracy    <       0.00080254 Ry

     total magnetization       =    -0.00    -0.00     4.97 Bohr mag/cell
     absolute magnetization    =     7.57 Bohr mag/cell

     iteration #372     ecut=   600.00 Ry     beta= 0.40
     Davidson diagonalization with overlap
     ethr =  1.38E-08,  avg # of iterations =  9.0
 --- enter write_ns ---
 LDA+U parameters:
U(  2) =   4.0000   J(  2) =   0.0000   B(  2) =   0.0000
atom    1   Tr[ns(na)] (up, down, total) =   4.96334  0.31233  5.27568
 eigenvalues: 
  0.019  0.020  0.021  0.125  0.128  0.990  0.990  0.994  0.994  0.995
 eigenvectors:
  0.000  0.000  0.000  0.000  0.000  0.000  0.000  0.000  0.000  1.000
  0.000  0.000  0.000  0.000  0.000  0.266  0.238  0.233  0.262  0.000
  0.000  0.000  0.000  0.000  0.000  0.266  0.238  0.234  0.262  0.000
  0.000  0.000  0.000  0.000  0.000  0.234  0.262  0.266  0.238  0.000
  0.000  0.000  0.000  0.000  0.000  0.234  0.262  0.267  0.238  0.000
  1.000  0.000  0.000  0.000  0.000  0.000  0.000  0.000  0.000  0.000
  0.000  0.187  0.178  0.322  0.313  0.000  0.000  0.000  0.000  0.000
  0.000  0.187  0.178  0.322  0.313  0.000  0.000  0.000  0.000  0.000
  0.000  0.313  0.322  0.178  0.187  0.000  0.000  0.000  0.000  0.000
  0.000  0.313  0.322  0.178  0.187  0.000  0.000  0.000  0.000  0.000
 occupations, | n_(i1, i2)^(sigma1, sigma2) |:
  0.995  0.000  0.000  0.000  0.000  0.000  0.002  0.002  0.002  0.002
  0.000  0.992  0.000  0.002  0.000  0.002  0.005  0.005  0.001  0.001
  0.000  0.000  0.992  0.000  0.002  0.002  0.005  0.005  0.001  0.001
  0.000  0.002  0.000  0.992  0.000  0.002  0.000  0.000  0.002  0.002
  0.000  0.000  0.002  0.000  0.992  0.002  0.000  0.000  0.002  0.002
  0.000  0.002  0.002  0.002  0.002  0.019  0.000  0.000  0.000  0.000
  0.002  0.005  0.005  0.000  0.000  0.000  0.088  0.000  0.051  0.001
  0.002  0.005  0.005  0.000  0.000  0.000  0.000  0.088  0.001  0.051
  0.002  0.001  0.001  0.002  0.002  0.000  0.051  0.001  0.059  0.001
  0.002  0.001  0.001  0.002  0.002  0.000  0.001  0.051  0.001  0.059
atomic mx, my, mz =     0.000000   -0.000000    4.651010
N of occupied +U levels =    5.275679
 --- exit write_ns ---
 --- in v_hubbard ---
Hub. E (dc, noflip, flip, total)    3.3145   3.3608  -0.0000   0.0463
 -------

     total cpu time spent up to now is    42724.3 secs

     total energy              =   -1134.19793634 Ry
     Harris-Foulkes estimate   =   -1134.20541875 Ry
     estimated scf accuracy    <       0.00064333 Ry

     total magnetization       =    -0.00     0.00     4.97 Bohr mag/cell
     absolute magnetization    =     7.50 Bohr mag/cell

     iteration #373     ecut=   600.00 Ry     beta= 0.40
     Davidson diagonalization with overlap
     ethr =  1.38E-08,  avg # of iterations =  8.0
 --- enter write_ns ---
 LDA+U parameters:
U(  2) =   4.0000   J(  2) =   0.0000   B(  2) =   0.0000
atom    1   Tr[ns(na)] (up, down, total) =   4.96332  0.31204  5.27536
 eigenvalues: 
  0.019  0.020  0.020  0.125  0.128  0.990  0.990  0.994  0.994  0.995
 eigenvectors:
  0.000  0.000  0.000  0.000  0.000  0.000  0.000  0.000  0.000  1.000
  0.000  0.000  0.000  0.000  0.000  0.267  0.238  0.233  0.262  0.000
  0.000  0.000  0.000  0.000  0.000  0.267  0.238  0.233  0.262  0.000
  0.000  0.000  0.000  0.000  0.000  0.233  0.262  0.267  0.238  0.000
  0.000  0.000  0.000  0.000  0.000  0.233  0.262  0.267  0.238  0.000
  1.000  0.000  0.000  0.000  0.000  0.000  0.000  0.000  0.000  0.000
  0.000  0.187  0.178  0.322  0.313  0.000  0.000  0.000  0.000  0.000
  0.000  0.187  0.178  0.322  0.313  0.000  0.000  0.000  0.000  0.000
  0.000  0.313  0.322  0.178  0.187  0.000  0.000  0.000  0.000  0.000
  0.000  0.313  0.322  0.178  0.187  0.000  0.000  0.000  0.000  0.000
 occupations, | n_(i1, i2)^(sigma1, sigma2) |:
  0.995  0.000  0.000  0.000  0.000  0.000  0.002  0.002  0.002  0.002
  0.000  0.992  0.000  0.002  0.000  0.002  0.005  0.005  0.001  0.001
  0.000  0.000  0.992  0.000  0.002  0.002  0.005  0.005  0.001  0.001
  0.000  0.002  0.000  0.992  0.000  0.002  0.000  0.000  0.002  0.002
  0.000  0.000  0.002  0.000  0.992  0.002  0.000  0.000  0.002  0.002
  0.000  0.002  0.002  0.002  0.002  0.019  0.000  0.000  0.000  0.000
  0.002  0.005  0.005  0.000  0.000  0.000  0.088  0.000  0.051  0.001
  0.002  0.005  0.005  0.000  0.000  0.000  0.000  0.088  0.001  0.051
  0.002  0.001  0.001  0.002  0.002  0.000  0.051  0.001  0.059  0.001
  0.002  0.001  0.001  0.002  0.002  0.000  0.001  0.051  0.001  0.059
atomic mx, my, mz =     0.000000   -0.000000    4.651278
N of occupied +U levels =    5.275356
 --- exit write_ns ---
 --- in v_hubbard ---
Hub. E (dc, noflip, flip, total)    3.3145   3.3609  -0.0000   0.0463
 -------

     total cpu time spent up to now is    42838.0 secs

     total energy              =   -1134.19828978 Ry
     Harris-Foulkes estimate   =   -1134.20281741 Ry
     estimated scf accuracy    <       0.00052230 Ry

     total magnetization       =     0.00     0.00     4.97 Bohr mag/cell
     absolute magnetization    =     7.51 Bohr mag/cell

     iteration #374     ecut=   600.00 Ry     beta= 0.40
     Davidson diagonalization with overlap
     ethr =  1.38E-08,  avg # of iterations =  8.1
 --- enter write_ns ---
 LDA+U parameters:
U(  2) =   4.0000   J(  2) =   0.0000   B(  2) =   0.0000
atom    1   Tr[ns(na)] (up, down, total) =   4.96330  0.31211  5.27541
 eigenvalues: 
  0.019  0.020  0.020  0.125  0.128  0.990  0.990  0.994  0.994  0.995
 eigenvectors:
  0.000  0.000  0.000  0.000  0.000  0.000  0.000  0.000  0.000  1.000
  0.000  0.000  0.000  0.000  0.000  0.267  0.238  0.233  0.262  0.000
  0.000  0.000  0.000  0.000  0.000  0.267  0.238  0.233  0.261  0.000
  0.000  0.000  0.000  0.000  0.000  0.233  0.262  0.267  0.238  0.000
  0.000  0.000  0.000  0.000  0.000  0.233  0.262  0.267  0.238  0.000
  1.000  0.000  0.000  0.000  0.000  0.000  0.000  0.000  0.000  0.000
  0.000  0.187  0.178  0.322  0.313  0.000  0.000  0.000  0.000  0.000
  0.000  0.187  0.178  0.322  0.313  0.000  0.000  0.000  0.000  0.000
  0.000  0.313  0.322  0.178  0.187  0.000  0.000  0.000  0.000  0.000
  0.000  0.313  0.322  0.178  0.187  0.000  0.000  0.000  0.000  0.000
 occupations, | n_(i1, i2)^(sigma1, sigma2) |:
  0.995  0.000  0.000  0.000  0.000  0.000  0.002  0.002  0.002  0.002
  0.000  0.992  0.000  0.002  0.000  0.002  0.005  0.005  0.001  0.001
  0.000  0.000  0.992  0.000  0.002  0.002  0.005  0.005  0.001  0.001
  0.000  0.002  0.000  0.992  0.000  0.002  0.000  0.000  0.002  0.002
  0.000  0.000  0.002  0.000  0.992  0.002  0.000  0.000  0.002  0.002
  0.000  0.002  0.002  0.002  0.002  0.019  0.000  0.000  0.000  0.000
  0.002  0.005  0.005  0.000  0.000  0.000  0.088  0.000  0.051  0.001
  0.002  0.005  0.005  0.000  0.000  0.000  0.000  0.088  0.001  0.051
  0.002  0.001  0.001  0.002  0.002  0.000  0.051  0.001  0.059  0.001
  0.002  0.001  0.001  0.002  0.002  0.000  0.001  0.051  0.001  0.059
atomic mx, my, mz =     0.000000   -0.000000    4.651189
N of occupied +U levels =    5.275413
 --- exit write_ns ---
 --- in v_hubbard ---
Hub. E (dc, noflip, flip, total)    3.3145   3.3609  -0.0000   0.0463
 -------

     total cpu time spent up to now is    42952.0 secs

     total energy              =   -1134.19881481 Ry
     Harris-Foulkes estimate   =   -1134.20324467 Ry
     estimated scf accuracy    <       0.00065182 Ry

     total magnetization       =    -0.00    -0.00     4.97 Bohr mag/cell
     absolute magnetization    =     7.48 Bohr mag/cell

     iteration #375     ecut=   600.00 Ry     beta= 0.40
     Davidson diagonalization with overlap
     ethr =  1.38E-08,  avg # of iterations =  8.0
 --- enter write_ns ---
 LDA+U parameters:
U(  2) =   4.0000   J(  2) =   0.0000   B(  2) =   0.0000
atom    1   Tr[ns(na)] (up, down, total) =   4.96330  0.31215  5.27545
 eigenvalues: 
  0.019  0.020  0.020  0.125  0.128  0.990  0.990  0.994  0.994  0.995
 eigenvectors:
  0.000  0.000  0.000  0.000  0.000  0.000  0.000  0.000  0.000  1.000
  0.000  0.000  0.000  0.000  0.000  0.267  0.238  0.233  0.261  0.000
  0.000  0.000  0.000  0.000  0.000  0.267  0.238  0.233  0.261  0.000
  0.000  0.000  0.000  0.000  0.000  0.233  0.261  0.267  0.239  0.000
  0.000  0.000  0.000  0.000  0.000  0.233  0.261  0.267  0.238  0.000
  1.000  0.000  0.000  0.000  0.000  0.000  0.000  0.000  0.000  0.000
  0.000  0.187  0.178  0.322  0.313  0.000  0.000  0.000  0.000  0.000
  0.000  0.187  0.178  0.322  0.313  0.000  0.000  0.000  0.000  0.000
  0.000  0.313  0.322  0.178  0.187  0.000  0.000  0.000  0.000  0.000
  0.000  0.313  0.322  0.178  0.187  0.000  0.000  0.000  0.000  0.000
 occupations, | n_(i1, i2)^(sigma1, sigma2) |:
  0.995  0.000  0.000  0.000  0.000  0.000  0.002  0.002  0.002  0.002
  0.000  0.992  0.000  0.002  0.000  0.002  0.005  0.005  0.001  0.001
  0.000  0.000  0.992  0.000  0.002  0.002  0.005  0.005  0.001  0.001
  0.000  0.002  0.000  0.992  0.000  0.002  0.000  0.000  0.002  0.002
  0.000  0.000  0.002  0.000  0.992  0.002  0.000  0.000  0.002  0.002
  0.000  0.002  0.002  0.002  0.002  0.019  0.000  0.000  0.000  0.000
  0.002  0.005  0.005  0.000  0.000  0.000  0.088  0.000  0.051  0.001
  0.002  0.005  0.005  0.000  0.000  0.000  0.000  0.088  0.001  0.051
  0.002  0.001  0.001  0.002  0.002  0.000  0.051  0.001  0.059  0.001
  0.002  0.001  0.001  0.002  0.002  0.000  0.001  0.051  0.001  0.059
atomic mx, my, mz =     0.000000   -0.000000    4.651145
N of occupied +U levels =    5.275454
 --- exit write_ns ---
 --- in v_hubbard ---
Hub. E (dc, noflip, flip, total)    3.3145   3.3609  -0.0000   0.0463
 -------

     total cpu time spent up to now is    43058.8 secs

     total energy              =   -1134.20331720 Ry
     Harris-Foulkes estimate   =   -1134.20072094 Ry
     estimated scf accuracy    <       0.00048381 Ry

     total magnetization       =     0.00     0.00     4.97 Bohr mag/cell
     absolute magnetization    =     7.48 Bohr mag/cell

     iteration #376     ecut=   600.00 Ry     beta= 0.40
     Davidson diagonalization with overlap
     ethr =  1.38E-08,  avg # of iterations =  9.0
 --- enter write_ns ---
 LDA+U parameters:
U(  2) =   4.0000   J(  2) =   0.0000   B(  2) =   0.0000
atom    1   Tr[ns(na)] (up, down, total) =   4.96329  0.31223  5.27552
 eigenvalues: 
  0.019  0.020  0.021  0.125  0.128  0.990  0.990  0.994  0.994  0.995
 eigenvectors:
  0.000  0.000  0.000  0.000  0.000  0.000  0.000  0.000  0.000  1.000
  0.000  0.000  0.000  0.000  0.000  0.267  0.239  0.233  0.261  0.000
  0.000  0.000  0.000  0.000  0.000  0.267  0.239  0.233  0.261  0.000
  0.000  0.000  0.000  0.000  0.000  0.233  0.261  0.267  0.239  0.000
  0.000  0.000  0.000  0.000  0.000  0.233  0.261  0.267  0.239  0.000
  1.000  0.000  0.000  0.000  0.000  0.000  0.000  0.000  0.000  0.000
  0.000  0.187  0.178  0.322  0.313  0.000  0.000  0.000  0.000  0.000
  0.000  0.187  0.178  0.322  0.313  0.000  0.000  0.000  0.000  0.000
  0.000  0.313  0.322  0.178  0.187  0.000  0.000  0.000  0.000  0.000
  0.000  0.313  0.322  0.178  0.187  0.000  0.000  0.000  0.000  0.000
 occupations, | n_(i1, i2)^(sigma1, sigma2) |:
  0.995  0.000  0.000  0.000  0.000  0.000  0.002  0.002  0.002  0.002
  0.000  0.992  0.000  0.002  0.000  0.002  0.005  0.005  0.001  0.001
  0.000  0.000  0.992  0.000  0.002  0.002  0.005  0.005  0.001  0.001
  0.000  0.002  0.000  0.992  0.000  0.002  0.000  0.000  0.002  0.002
  0.000  0.000  0.002  0.000  0.992  0.002  0.000  0.000  0.002  0.002
  0.000  0.002  0.002  0.002  0.002  0.019  0.000  0.000  0.000  0.000
  0.002  0.005  0.005  0.000  0.000  0.000  0.088  0.000  0.051  0.001
  0.002  0.005  0.005  0.000  0.000  0.000  0.000  0.088  0.001  0.051
  0.002  0.001  0.001  0.002  0.002  0.000  0.051  0.001  0.059  0.001
  0.002  0.001  0.001  0.002  0.002  0.000  0.001  0.051  0.001  0.059
atomic mx, my, mz =     0.000000   -0.000000    4.651059
N of occupied +U levels =    5.275523
 --- exit write_ns ---
 --- in v_hubbard ---
Hub. E (dc, noflip, flip, total)    3.3145   3.3608  -0.0000   0.0463
 -------

     total cpu time spent up to now is    43179.7 secs

     total energy              =   -1134.19731710 Ry
     Harris-Foulkes estimate   =   -1134.20909328 Ry
     estimated scf accuracy    <       0.00072201 Ry

     total magnetization       =     0.00    -0.00     4.98 Bohr mag/cell
     absolute magnetization    =     7.54 Bohr mag/cell

     iteration #377     ecut=   600.00 Ry     beta= 0.40
     Davidson diagonalization with overlap
     ethr =  1.38E-08,  avg # of iterations =  9.0
 --- enter write_ns ---
 LDA+U parameters:
U(  2) =   4.0000   J(  2) =   0.0000   B(  2) =   0.0000
atom    1   Tr[ns(na)] (up, down, total) =   4.96329  0.31218  5.27548
 eigenvalues: 
  0.019  0.020  0.020  0.125  0.128  0.990  0.990  0.994  0.994  0.995
 eigenvectors:
  0.000  0.000  0.000  0.000  0.000  0.000  0.000  0.000  0.000  1.000
  0.000  0.000  0.000  0.000  0.000  0.267  0.239  0.233  0.261  0.000
  0.000  0.000  0.000  0.000  0.000  0.267  0.239  0.233  0.261  0.000
  0.000  0.000  0.000  0.000  0.000  0.233  0.261  0.267  0.239  0.000
  0.000  0.000  0.000  0.000  0.000  0.233  0.261  0.267  0.239  0.000
  1.000  0.000  0.000  0.000  0.000  0.000  0.000  0.000  0.000  0.000
  0.000  0.187  0.178  0.322  0.313  0.000  0.000  0.000  0.000  0.000
  0.000  0.187  0.178  0.322  0.313  0.000  0.000  0.000  0.000  0.000
  0.000  0.313  0.322  0.178  0.187  0.000  0.000  0.000  0.000  0.000
  0.000  0.313  0.322  0.178  0.187  0.000  0.000  0.000  0.000  0.000
 occupations, | n_(i1, i2)^(sigma1, sigma2) |:
  0.995  0.000  0.000  0.000  0.000  0.000  0.002  0.002  0.002  0.002
  0.000  0.992  0.000  0.002  0.000  0.002  0.005  0.005  0.001  0.001
  0.000  0.000  0.992  0.000  0.002  0.002  0.005  0.005  0.001  0.001
  0.000  0.002  0.000  0.992  0.000  0.002  0.000  0.000  0.002  0.002
  0.000  0.000  0.002  0.000  0.992  0.002  0.000  0.000  0.002  0.002
  0.000  0.002  0.002  0.002  0.002  0.019  0.000  0.000  0.000  0.000
  0.002  0.005  0.005  0.000  0.000  0.000  0.088  0.000  0.051  0.001
  0.002  0.005  0.005  0.000  0.000  0.000  0.000  0.088  0.001  0.051
  0.002  0.001  0.001  0.002  0.002  0.000  0.051  0.001  0.059  0.001
  0.002  0.001  0.001  0.002  0.002  0.000  0.001  0.051  0.001  0.059
atomic mx, my, mz =     0.000000   -0.000000    4.651109
N of occupied +U levels =    5.275475
 --- exit write_ns ---
 --- in v_hubbard ---
Hub. E (dc, noflip, flip, total)    3.3145   3.3608  -0.0000   0.0463
 -------

     total cpu time spent up to now is    43298.0 secs

     total energy              =   -1134.20346783 Ry
     Harris-Foulkes estimate   =   -1134.20239588 Ry
     estimated scf accuracy    <       0.00042851 Ry

     total magnetization       =    -0.00    -0.00     4.97 Bohr mag/cell
     absolute magnetization    =     7.50 Bohr mag/cell

     iteration #378     ecut=   600.00 Ry     beta= 0.40
     Davidson diagonalization with overlap
